ITEM: TIMESTEP
0
ITEM: NUMBER OF ATOMS
336
ITEM: BOX BOUNDS xy xz yz pp pp pp
0.0000000000000000e+00 2.6364000320399999e+01 0.0000000000000000e+00
0.0000000000000000e+00 1.1574000358599999e+01 0.0000000000000000e+00
0.0000000000000000e+00 1.0708999633800000e+01 0.0000000000000000e+00
ITEM: ATOMS id type xs ys zs
1 1 0.0920165 0.355177 0.444287
2 1 0.907984 0.644823 0.555713
3 1 0.157984 0.644823 0.944287
4 1 0.342016 0.355177 0.055713
5 1 0.907984 0.855177 0.0557131
6 1 0.0920164 0.144823 0.944287
7 1 0.342016 0.144823 0.555713
8 1 0.157984 0.855177 0.444287
9 1 0.592016 0.355177 0.444287
10 1 0.407984 0.644823 0.555713
11 1 0.657984 0.644823 0.944287
12 1 0.842016 0.355177 0.0557129
13 1 0.407984 0.855177 0.0557129
14 1 0.592016 0.144823 0.944287
15 1 0.842016 0.144823 0.555713
16 1 0.657984 0.855177 0.444287
17 1 0.0240499 0.239802 0.339921
18 1 0.97595 0.760198 0.660079
19 1 0.22595 0.760198 0.839921
20 1 0.27405 0.239802 0.160079
21 1 0.97595 0.739802 0.160079
22 1 0.0240499 0.260198 0.839921
23 1 0.27405 0.260198 0.660079
24 1 0.22595 0.739802 0.339921
25 1 0.52405 0.239803 0.339922
26 1 0.47595 0.760197 0.660078
27 1 0.72595 0.760197 0.839922
28 1 0.77405 0.239802 0.160078
29 1 0.47595 0.739802 0.160078
30 1 0.52405 0.260197 0.839921
31 1 0.77405 0.260197 0.660078
32 1 0.72595 0.739803 0.339922
33 1 0.0742755 0.378699 0.210947
34 1 0.925725 0.621301 0.789053
35 1 0.175725 0.621301 0.710947
36 1 0.324275 0.378699 0.289053
37 1 0.925725 0.878699 0.289053
38 1 0.0742754 0.121301 0.710947
39 1 0.324275 0.121301 0.789053
40 1 0.175725 0.878699 0.210947
41 1 0.574275 0.378699 0.210947
42 1 0.425725 0.621301 0.789053
43 1 0.675725 0.621301 0.710947
44 1 0.824275 0.378699 0.289053
45 1 0.425725 0.878699 0.289053
46 1 0.574275 0.121301 0.710947
47 1 0.824275 0.121301 0.789053
48 1 0.675725 0.878699 0.210947
49 2 0.124518 0.295357 0.427276
50 2 0.875482 0.704643 0.572724
51 2 0.125482 0.704643 0.927276
52 2 0.374518 0.295357 0.0727239
53 2 0.875482 0.795357 0.0727239
54 2 0.124518 0.204643 0.927276
55 2 0.374518 0.204643 0.572724
56 2 0.125482 0.795357 0.427276
57 2 0.624518 0.295357 0.427276
58 2 0.375482 0.704643 0.572724
59 2 0.625482 0.704643 0.927276
60 2 0.874518 0.295357 0.0727239
61 2 0.375482 0.795357 0.0727239
62 2 0.624518 0.204643 0.927276
63 2 0.874518 0.204643 0.572724
64 2 0.625482 0.795357 0.427276
65 2 0.102811 0.404608 0.528766
66 2 0.897189 0.595392 0.471234
67 2 0.147189 0.595392 0.0287663
68 2 0.352811 0.404608 0.971234
69 2 0.897189 0.904608 0.971234
70 2 0.102811 0.0953924 0.0287663
71 2 0.352811 0.0953924 0.471234
72 2 0.147189 0.904608 0.528766
73 2 0.602811 0.404608 0.528766
74 2 0.397189 0.595392 0.471234
75 2 0.647189 0.595392 0.0287663
76 2 0.852811 0.404608 0.971234
77 2 0.397189 0.904608 0.971234
78 2 0.602811 0.0953924 0.0287663
79 2 0.852811 0.0953924 0.471234
80 2 0.647189 0.904608 0.528766
81 2 0.985584 0.203646 0.353326
82 2 0.0144161 0.796354 0.646674
83 2 0.264416 0.796354 0.853326
84 2 0.235584 0.203646 0.146674
85 2 0.0144161 0.703646 0.146674
86 2 0.985584 0.296354 0.853326
87 2 0.235584 0.296354 0.646674
88 2 0.264416 0.703646 0.353326
89 2 0.485584 0.203646 0.353326
90 2 0.514416 0.796354 0.646674
91 2 0.764416 0.796354 0.853326
92 2 0.735584 0.203646 0.146674
93 2 0.514416 0.703646 0.146674
94 2 0.485584 0.296354 0.853326
95 2 0.735584 0.296354 0.646674
96 2 0.764416 0.703646 0.353326
97 2 0.0483245 0.163777 0.318788
98 2 0.951675 0.836223 0.681212
99 2 0.201675 0.836223 0.818788
100 2 0.298325 0.163777 0.181212
101 2 0.951675 0.663777 0.181212
102 2 0.0483245 0.336223 0.818788
103 2 0.298325 0.336223 0.681212
104 2 0.201675 0.663777 0.318788
105 2 0.548325 0.163777 0.318788
106 2 0.451675 0.836223 0.681212
107 2 0.701675 0.836223 0.818788
108 2 0.798325 0.163777 0.181212
109 2 0.451676 0.663777 0.181212
110 2 0.548325 0.336223 0.818788
111 2 0.798325 0.336223 0.681212
112 2 0.701675 0.663777 0.318788
113 2 0.105728 0.318946 0.184587
114 2 0.894272 0.681054 0.815413
115 2 0.144272 0.681054 0.684587
116 2 0.355728 0.318946 0.315413
117 2 0.894272 0.818946 0.315413
118 2 0.105728 0.181054 0.684587
119 2 0.355728 0.181054 0.815413
120 2 0.144272 0.818946 0.184587
121 2 0.605728 0.318946 0.184587
122 2 0.394272 0.681054 0.815413
123 2 0.644272 0.681054 0.684587
124 2 0.855728 0.318946 0.315413
125 2 0.394272 0.818946 0.315413
126 2 0.605728 0.181054 0.684587
127 2 0.855728 0.181054 0.815413
128 2 0.644272 0.818946 0.184587
129 2 0.0732121 0.443361 0.134634
130 2 0.926788 0.556639 0.865366
131 2 0.176788 0.556639 0.634634
132 2 0.323212 0.443361 0.365366
133 2 0.926788 0.943361 0.365366
134 2 0.0732121 0.0566388 0.634634
135 2 0.323212 0.0566388 0.865366
136 2 0.176788 0.943361 0.134634
137 2 0.573212 0.443361 0.134634
138 2 0.426788 0.556639 0.865366
139 2 0.676788 0.556639 0.634634
140 2 0.823212 0.443361 0.365366
141 2 0.426788 0.943361 0.365366
142 2 0.573212 0.0566388 0.634634
143 2 0.823212 0.0566388 0.865366
144 2 0.676788 0.943361 0.134634
145 3 0.0891783 0.43285 0.332531
146 3 0.910822 0.56715 0.667469
147 3 0.160822 0.56715 0.832531
148 3 0.339178 0.43285 0.167469
149 3 0.910822 0.93285 0.167469
150 3 0.0891783 0.0671502 0.832531
151 3 0.339178 0.0671501 0.667469
152 3 0.160822 0.93285 0.332531
153 3 0.589178 0.43285 0.332531
154 3 0.410822 0.56715 0.667469
155 3 0.660822 0.56715 0.832531
156 3 0.839178 0.43285 0.167469
157 3 0.410822 0.93285 0.167469
158 3 0.589178 0.0671501 0.832531
159 3 0.839178 0.0671501 0.667469
160 3 0.660822 0.93285 0.332531
161 3 0.0455472 0.281649 0.461419
162 3 0.954453 0.718351 0.538581
163 3 0.204453 0.718351 0.961419
164 3 0.295547 0.281649 0.038581
165 3 0.954453 0.781649 0.0385809
166 3 0.0455473 0.218351 0.961419
167 3 0.295547 0.218351 0.538581
168 3 0.204453 0.781649 0.461419
169 3 0.545547 0.281649 0.461419
170 3 0.454453 0.718351 0.538581
171 3 0.704453 0.718351 0.961419
172 3 0.795547 0.281649 0.0385812
173 3 0.454453 0.781649 0.0385812
174 3 0.545547 0.218351 0.961419
175 3 0.795547 0.218351 0.538581
176 3 0.704453 0.781649 0.461419
177 3 0.0268631 0.307218 0.220163
178 3 0.973137 0.692782 0.779837
179 3 0.223137 0.692782 0.720163
180 3 0.276863 0.307218 0.279837
181 3 0.973137 0.807218 0.279837
182 3 0.0268631 0.192782 0.720163
183 3 0.276863 0.192782 0.779837
184 3 0.223137 0.807218 0.220163
185 3 0.526863 0.307218 0.220163
186 3 0.473137 0.692782 0.779837
187 3 0.723137 0.692782 0.720163
188 3 0.776863 0.307218 0.279837
189 3 0.473137 0.807218 0.279837
190 3 0.526863 0.192782 0.720163
191 3 0.776863 0.192782 0.779837
192 3 0.723137 0.807218 0.220163
193 3 0.116837 0.549765 0.334279
194 3 0.883163 0.450235 0.665721
195 3 0.133163 0.450235 0.834279
196 3 0.366837 0.549765 0.165721
197 3 0.883163 0.049765 0.165721
198 3 0.116837 0.950235 0.834279
199 3 0.366837 0.950235 0.665721
200 3 0.133163 0.049765 0.334279
201 3 0.616837 0.549765 0.334279
202 3 0.383163 0.450235 0.665721
203 3 0.633163 0.450235 0.834279
204 3 0.866837 0.549765 0.165721
205 3 0.383163 0.049765 0.165721
206 3 0.616837 0.950235 0.834279
207 3 0.866837 0.950235 0.665721
208 3 0.633163 0.049765 0.334279
209 3 0.00558528 0.352252 0.531285
210 3 0.994415 0.647748 0.468715
211 3 0.244415 0.647748 0.0312849
212 3 0.255585 0.352252 0.968715
213 3 0.994415 0.852252 0.968715
214 3 0.00558527 0.147748 0.0312849
215 3 0.255585 0.147748 0.468715
216 3 0.244415 0.852252 0.531285
217 3 0.505585 0.352252 0.531285
218 3 0.494415 0.647748 0.468715
219 3 0.744415 0.647748 0.0312849
220 3 0.755585 0.352252 0.968715
221 3 0.494415 0.852252 0.968715
222 3 0.505585 0.147748 0.0312849
223 3 0.755585 0.147748 0.468715
224 3 0.744415 0.852252 0.531285
225 3 0.981116 0.386648 0.205469
226 3 0.0188837 0.613352 0.794531
227 3 0.268884 0.613352 0.705468
228 3 0.231116 0.386648 0.294531
229 3 0.0188836 0.886648 0.294531
230 3 0.981116 0.113352 0.705469
231 3 0.231116 0.113352 0.794532
232 3 0.268884 0.886648 0.205469
233 3 0.481116 0.386649 0.205468
234 3 0.518884 0.613351 0.794532
235 3 0.768884 0.613351 0.705468
236 3 0.731116 0.386648 0.294531
237 3 0.518884 0.886648 0.294532
238 3 0.481116 0.113351 0.705468
239 3 0.731116 0.113351 0.794532
240 3 0.768884 0.886649 0.205468
241 4 0.117477 0.611513 0.234196
242 4 0.882523 0.388487 0.765804
243 4 0.132523 0.388487 0.734196
244 4 0.367477 0.611513 0.265804
245 4 0.882523 0.111513 0.265804
246 4 0.117477 0.888487 0.734196
247 4 0.367477 0.888487 0.765804
248 4 0.132523 0.111513 0.234196
249 4 0.617477 0.611513 0.234196
250 4 0.382523 0.388487 0.765804
251 4 0.632523 0.388487 0.734196
252 4 0.867477 0.611513 0.265804
253 4 0.382523 0.111513 0.265804
254 4 0.617477 0.888487 0.734196
255 4 0.867477 0.888487 0.765804
256 4 0.632523 0.111513 0.234196
257 4 0.137261 0.584185 0.437027
258 4 0.862739 0.415815 0.562973
259 4 0.112739 0.415815 0.937027
260 4 0.387261 0.584185 0.0629728
261 4 0.862739 0.0841853 0.0629727
262 4 0.137261 0.915815 0.937027
263 4 0.387261 0.915815 0.562973
264 4 0.112739 0.0841853 0.437027
265 4 0.637261 0.584185 0.437027
266 4 0.362739 0.415815 0.562973
267 4 0.612739 0.415815 0.937027
268 4 0.887261 0.584185 0.0629728
269 4 0.362739 0.0841853 0.0629728
270 4 0.637261 0.915815 0.937027
271 4 0.887261 0.915815 0.562973
272 4 0.612739 0.0841853 0.437027
273 4 0.959209 0.315976 0.532365
274 4 0.0407911 0.684024 0.467635
275 4 0.290791 0.684024 0.0323646
276 4 0.209209 0.315976 0.967635
277 4 0.0407911 0.815976 0.967635
278 4 0.959209 0.184024 0.0323646
279 4 0.209209 0.184024 0.467635
280 4 0.290791 0.815976 0.532365
281 4 0.459209 0.315977 0.532365
282 4 0.540791 0.684023 0.467635
283 4 0.790791 0.684023 0.0323646
284 4 0.709209 0.315977 0.967635
285 4 0.540791 0.815977 0.967635
286 4 0.459209 0.184023 0.0323646
287 4 0.709209 0.184023 0.467635
288 4 0.790791 0.815977 0.532365
289 4 0.0202323 0.432888 0.606839
290 4 0.979768 0.567112 0.393161
291 4 0.229768 0.567112 0.106839
292 4 0.270232 0.432888 0.893161
293 4 0.979768 0.932888 0.893161
294 4 0.0202323 0.0671123 0.106839
295 4 0.270232 0.0671123 0.393161
296 4 0.229768 0.932888 0.606839
297 4 0.520232 0.432888 0.606839
298 4 0.479768 0.567112 0.393161
299 4 0.729768 0.567112 0.106839
300 4 0.770232 0.432888 0.893161
301 4 0.479768 0.932888 0.893161
302 4 0.520232 0.0671124 0.106839
303 4 0.770232 0.0671124 0.393161
304 4 0.729768 0.932888 0.606839
305 4 0.937753 0.356474 0.251591
306 4 0.0622475 0.643526 0.748409
307 4 0.312247 0.643526 0.751591
308 4 0.187752 0.356474 0.248409
309 4 0.0622476 0.856474 0.248409
310 4 0.937753 0.143526 0.751591
311 4 0.187753 0.143526 0.748409
312 4 0.312247 0.856474 0.251591
313 4 0.437753 0.356474 0.251591
314 4 0.562247 0.643526 0.748409
315 4 0.812247 0.643526 0.751591
316 4 0.687753 0.356474 0.248409
317 4 0.562247 0.856474 0.248409
318 4 0.437753 0.143526 0.751591
319 4 0.687753 0.143526 0.748409
320 4 0.812247 0.856474 0.251591
321 4 0.985019 0.477359 0.135116
322 4 0.0149808 0.522641 0.864884
323 4 0.264981 0.522641 0.635116
324 4 0.235019 0.477359 0.364884
325 4 0.0149808 0.977359 0.364884
326 4 0.985019 0.022641 0.635116
327 4 0.235019 0.022641 0.864884
328 4 0.264981 0.977359 0.135116
329 4 0.485019 0.477359 0.135116
330 4 0.514981 0.522641 0.864884
331 4 0.764981 0.522641 0.635116
332 4 0.735019 0.477359 0.364884
333 4 0.514981 0.977359 0.364884
334 4 0.485019 0.0226411 0.635116
335 4 0.735019 0.0226411 0.864884
336 4 0.764981 0.977359 0.135116
ITEM: TIMESTEP
1000
ITEM: NUMBER OF ATOMS
336
ITEM: BOX BOUNDS xy xz yz pp pp pp
-4.2270738048541878e-01 2.6811441808220724e+01 6.7076432951534162e-02
-3.6804582348462073e-01 1.1936874055736311e+01 -4.2342325616250606e-02
-2.5632477578170842e-01 1.0965324409581667e+01 -5.1721263483178303e-03
ITEM: ATOMS id type xs ys zs
1 1 0.0699591 0.390036 0.462691
2 1 0.911654 0.621754 0.579349
3 1 0.183461 0.58589 0.956271
4 1 0.360953 0.330236 0.080668
5 1 0.916638 0.891251 0.0553338
6 1 0.085875 0.150836 0.927249
7 1 0.353546 0.183151 0.553676
8 1 0.183526 0.915837 0.481906
9 1 0.596019 0.39376 0.418734
10 1 0.415115 0.659849 0.568918
11 1 0.677032 0.641604 0.924535
12 1 0.835553 0.390971 0.0887558
13 1 0.395882 0.814442 0.0895478
14 1 0.576539 0.0907981 0.931561
15 1 0.822356 0.0806807 0.571915
16 1 0.641332 0.8429 0.391735
17 1 0.0171131 0.273656 0.320659
18 1 0.969913 0.74166 0.685397
19 1 0.225059 0.73617 0.837442
20 1 0.294257 0.226346 0.192328
21 1 0.970522 0.762537 0.168695
22 1 0.0181069 0.24706 0.807411
23 1 0.286722 0.253426 0.69208
24 1 0.215734 0.795132 0.310557
25 1 0.543791 0.2505 0.306128
26 1 0.491946 0.739798 0.681771
27 1 0.718194 0.757042 0.769206
28 1 0.775778 0.284293 0.202247
29 1 0.47175 0.752725 0.213467
30 1 0.532348 0.244582 0.812973
31 1 0.786129 0.21271 0.721524
32 1 0.720843 0.765995 0.302768
33 1 0.056751 0.442639 0.242965
34 1 0.925687 0.598959 0.805131
35 1 0.162078 0.611693 0.742799
36 1 0.327458 0.404362 0.278724
37 1 0.91343 0.876999 0.285675
38 1 0.0569605 0.074535 0.728724
39 1 0.353002 0.114521 0.767869
40 1 0.203296 0.991103 0.269204
41 1 0.583718 0.39793 0.188702
42 1 0.427826 0.617011 0.786198
43 1 0.668478 0.588663 0.70787
44 1 0.817936 0.429607 0.320138
45 1 0.412895 0.902686 0.290177
46 1 0.588805 0.1133 0.706547
47 1 0.808154 0.0223308 0.785663
48 1 0.664194 0.884949 0.176324
49 2 0.102912 0.342473 0.493472
50 2 0.880762 0.640082 0.519166
51 2 0.166093 0.569549 0.0469201
52 2 0.39444 0.279932 0.101492
53 2 0.891633 0.890688 0.976356
54 2 0.11538 0.21143 0.941442
55 2 0.382284 0.246475 0.567275
56 2 0.144681 0.901244 0.51625
57 2 0.631992 0.363781 0.456292
58 2 0.384079 0.722719 0.563489
59 2 0.65071 0.663575 0.994925
60 2 0.870333 0.361358 0.0477988
61 2 0.368316 0.751906 0.11673
62 2 0.604133 0.0901325 0.00497709
63 2 0.859771 0.112905 0.567182
64 2 0.617039 0.771366 0.386802
65 2 0.0632328 0.449957 0.53194
66 2 0.924988 0.545199 0.534668
67 2 0.213386 0.52282 0.955293
68 2 0.372304 0.36459 0.995631
69 2 0.937498 0.969121 0.0368351
70 2 0.0881933 0.102882 0.00751018
71 2 0.359044 0.159095 0.457557
72 2 0.201289 0.956224 0.563057
73 2 0.584499 0.456815 0.484257
74 2 0.407162 0.626628 0.477339
75 2 0.699965 0.579759 0.972771
76 2 0.826657 0.451553 0.0200572
77 2 0.385479 0.835808 0.998303
78 2 0.554196 0.0210638 0.965041
79 2 0.818819 0.0517301 0.477967
80 2 0.628168 0.880672 0.476311
81 2 0.981413 0.228736 0.314321
82 2 0.00403038 0.789112 0.673367
83 2 0.262431 0.769809 0.826602
84 2 0.257012 0.194544 0.177123
85 2 0.0104596 0.744511 0.163355
86 2 0.982978 0.286505 0.815898
87 2 0.247494 0.265677 0.694876
88 2 0.245019 0.730046 0.309175
89 2 0.508954 0.206321 0.316292
90 2 0.531339 0.744115 0.654358
91 2 0.751091 0.808755 0.754997
92 2 0.74093 0.238959 0.19538
93 2 0.513136 0.732586 0.209206
94 2 0.494885 0.278009 0.806579
95 2 0.752157 0.264364 0.729294
96 2 0.758038 0.732221 0.31874
97 2 0.0461979 0.210647 0.301464
98 2 0.941218 0.803971 0.717371
99 2 0.205165 0.812745 0.833887
100 2 0.315443 0.157733 0.226944
101 2 0.95179 0.685249 0.182687
102 2 0.0422297 0.313139 0.773963
103 2 0.305859 0.331204 0.720101
104 2 0.181077 0.76229 0.270894
105 2 0.568812 0.178585 0.288767
106 2 0.480401 0.82715 0.69751
107 2 0.685246 0.805165 0.745994
108 2 0.799101 0.217476 0.228832
109 2 0.456152 0.67173 0.251383
110 2 0.557077 0.316973 0.803341
111 2 0.817139 0.261628 0.754549
112 2 0.702517 0.688433 0.274388
113 2 0.0745553 0.466184 0.158309
114 2 0.903039 0.637294 0.876527
115 2 0.137681 0.681988 0.715501
116 2 0.346669 0.440713 0.360233
117 2 0.887283 0.81058 0.312695
118 2 0.0708911 0.029857 0.649085
119 2 0.381531 0.163494 0.819511
120 2 0.177876 0.0221578 0.196344
121 2 0.613052 0.359653 0.130864
122 2 0.400419 0.668198 0.840693
123 2 0.637285 0.62247 0.655524
124 2 0.842653 0.415658 0.396887
125 2 0.384865 0.862038 0.346786
126 2 0.617327 0.177667 0.696001
127 2 0.844945 0.0327438 0.824415
128 2 0.64074 0.825316 0.126185
129 2 0.0323873 0.513615 0.25706
130 2 0.930056 0.520783 0.858149
131 2 0.158698 0.553191 0.665569
132 2 0.301964 0.474863 0.248886
133 2 0.910093 0.936053 0.360543
134 2 0.034692 0.0106812 0.764149
135 2 0.355901 0.0363456 0.818264
136 2 0.233032 0.0507034 0.263354
137 2 0.571258 0.467878 0.131617
138 2 0.427921 0.543533 0.849907
139 2 0.676403 0.50893 0.670432
140 2 0.799866 0.508654 0.337546
141 2 0.417897 0.982592 0.333612
142 2 0.590818 0.0592195 0.625973
143 2 0.790176 0.956981 0.835916
144 2 0.665983 0.954399 0.112953
145 3 0.0900761 0.438293 0.351559
146 3 0.892006 0.586355 0.700098
147 3 0.14808 0.561695 0.857901
148 3 0.364 0.413026 0.179527
149 3 0.890491 0.912829 0.171875
150 3 0.0987274 0.0922257 0.81308
151 3 0.369684 0.0986774 0.642165
152 3 0.180817 0.00491934 0.391768
153 3 0.608864 0.441594 0.298327
154 3 0.40361 0.586714 0.673385
155 3 0.649322 0.578184 0.830983
156 3 0.849232 0.441302 0.207607
157 3 0.387625 0.909079 0.16959
158 3 0.599206 0.0508785 0.818692
159 3 0.818286 0.988256 0.66054
160 3 0.632505 0.913509 0.284163
161 3 0.0264401 0.313446 0.44448
162 3 0.948493 0.712266 0.568075
163 3 0.209118 0.694283 0.959519
164 3 0.317269 0.257476 0.0749857
165 3 0.95428 0.802058 0.048591
166 3 0.0377888 0.214483 0.92607
167 3 0.304405 0.238642 0.565271
168 3 0.206513 0.811822 0.440983
169 3 0.562154 0.297868 0.421446
170 3 0.465812 0.707545 0.56636
171 3 0.710447 0.734925 0.899106
172 3 0.795906 0.30988 0.0780211
173 3 0.446449 0.757568 0.0959633
174 3 0.547166 0.195266 0.931705
175 3 0.793433 0.183156 0.593754
176 3 0.692478 0.796201 0.412169
177 3 0.0216221 0.348243 0.219114
178 3 0.971377 0.664114 0.792758
179 3 0.212318 0.665718 0.733692
180 3 0.2929 0.311082 0.291296
181 3 0.963645 0.823274 0.28352
182 3 0.0222328 0.166527 0.706531
183 3 0.30447 0.173473 0.783063
184 3 0.225533 0.888427 0.227753
185 3 0.541511 0.320625 0.197951
186 3 0.47829 0.669978 0.786187
187 3 0.711287 0.663641 0.685997
188 3 0.775621 0.354713 0.310033
189 3 0.461001 0.843664 0.300289
190 3 0.539379 0.171099 0.708205
191 3 0.780917 0.126494 0.81459
192 3 0.715942 0.839095 0.198105
193 3 0.12041 0.541635 0.364876
194 3 0.879719 0.467259 0.688281
195 3 0.142046 0.438272 0.83819
196 3 0.367437 0.530016 0.136946
197 3 0.876234 0.0322532 0.185055
198 3 0.123807 0.983876 0.84199
199 3 0.364864 0.980312 0.600821
200 3 0.12803 0.0462281 0.386897
201 3 0.611305 0.564855 0.289362
202 3 0.403517 0.465023 0.639923
203 3 0.63396 0.465118 0.870636
204 3 0.859649 0.56003 0.18783
205 3 0.396083 0.0196592 0.11524
206 3 0.594902 0.925637 0.799498
207 3 0.865277 0.921364 0.654175
208 3 0.635145 0.0350366 0.305496
209 3 0.978349 0.355464 0.498746
210 3 0.988663 0.677299 0.479305
211 3 0.254215 0.687675 0.0388509
212 3 0.280198 0.315154 0.993655
213 3 0.000993715 0.841105 0.988286
214 3 0.999239 0.151491 0.995382
215 3 0.266913 0.174203 0.495796
216 3 0.255524 0.796952 0.506442
217 3 0.51735 0.325518 0.497575
218 3 0.497773 0.631578 0.492218
219 3 0.759964 0.720496 0.962684
220 3 0.757438 0.361639 0.997861
221 3 0.482438 0.805109 0.00792459
222 3 0.500255 0.170134 0.99963
223 3 0.741898 0.178275 0.537204
224 3 0.723717 0.853947 0.50446
225 3 0.9723 0.396566 0.181607
226 3 0.0173109 0.593453 0.792777
227 3 0.250807 0.57791 0.712478
228 3 0.240205 0.348928 0.311764
229 3 0.00596131 0.901226 0.307023
230 3 0.973393 0.114786 0.670966
231 3 0.264048 0.0882529 0.798302
232 3 0.280889 0.909463 0.217773
233 3 0.493381 0.385827 0.192403
234 3 0.516386 0.579967 0.790383
235 3 0.757777 0.596542 0.672373
236 3 0.726999 0.419941 0.311466
237 3 0.502859 0.924989 0.309555
238 3 0.498669 0.085574 0.702462
239 3 0.727009 0.100349 0.835159
240 3 0.753082 0.930396 0.210093
241 4 0.12126 0.61131 0.279715
242 4 0.874635 0.407555 0.78188
243 4 0.130333 0.40067 0.733297
244 4 0.381292 0.601613 0.213774
245 4 0.884917 0.0813381 0.285162
246 4 0.127321 0.911671 0.758222
247 4 0.374441 0.902951 0.675243
248 4 0.110491 0.0881458 0.289911
249 4 0.604926 0.610681 0.185323
250 4 0.411135 0.392622 0.721442
251 4 0.627975 0.390153 0.790524
252 4 0.850715 0.62262 0.278664
253 4 0.390905 0.101496 0.187642
254 4 0.598935 0.887735 0.69272
255 4 0.890576 0.897823 0.748654
256 4 0.642226 0.101886 0.21721
257 4 0.142053 0.557994 0.466017
258 4 0.864615 0.436245 0.584263
259 4 0.142095 0.376563 0.930298
260 4 0.368758 0.549104 0.0238002
261 4 0.86032 0.0875822 0.0954028
262 4 0.135283 0.962492 0.95185
263 4 0.363757 0.959756 0.486002
264 4 0.102456 0.0471281 0.485147
265 4 0.624303 0.620781 0.382396
266 4 0.387946 0.43908 0.535632
267 4 0.625176 0.440778 0.980284
268 4 0.86632 0.597499 0.0809796
269 4 0.391547 0.0321353 0.000956626
270 4 0.592918 0.868962 0.895502
271 4 0.879197 0.878354 0.553813
272 4 0.629416 0.0719372 0.4129
273 4 0.941585 0.374148 0.428493
274 4 0.0334198 0.706883 0.498711
275 4 0.296808 0.714457 0.995649
276 4 0.236871 0.339799 0.0314788
277 4 0.0440475 0.821049 0.0339431
278 4 0.953719 0.152824 0.961633
279 4 0.223221 0.175644 0.534841
280 4 0.277489 0.704818 0.490364
281 4 0.481369 0.256458 0.500619
282 4 0.542301 0.610102 0.52873
283 4 0.799113 0.766306 0.921427
284 4 0.712562 0.376244 0.0348402
285 4 0.527834 0.77246 0.0188641
286 4 0.458839 0.221711 0.985189
287 4 0.704941 0.220655 0.592602
288 4 0.767135 0.815178 0.532829
289 4 0.979648 0.39804 0.604889
290 4 0.975479 0.629972 0.38175
291 4 0.253178 0.632752 0.137182
292 4 0.295393 0.349795 0.891982
293 4 0.996855 0.903502 0.896498
294 4 0.0155593 0.0809215 0.0724583
295 4 0.280782 0.116712 0.403108
296 4 0.271358 0.871064 0.579102
297 4 0.520448 0.402948 0.575258
298 4 0.485729 0.605501 0.383035
299 4 0.760686 0.661836 0.0581559
300 4 0.77055 0.393256 0.891582
301 4 0.468854 0.862755 0.917735
302 4 0.506798 0.111663 0.0943446
303 4 0.737281 0.135349 0.431078
304 4 0.701925 0.920923 0.576778
305 4 0.932876 0.33864 0.173997
306 4 0.0504162 0.61216 0.712282
307 4 0.296575 0.598335 0.740897
308 4 0.204735 0.283902 0.279586
309 4 0.0513459 0.868666 0.299972
310 4 0.932178 0.154167 0.702319
311 4 0.220644 0.121756 0.828496
312 4 0.311232 0.855394 0.285461
313 4 0.457338 0.35963 0.263374
314 4 0.562016 0.609013 0.776782
315 4 0.799559 0.642009 0.688255
316 4 0.685027 0.367655 0.299428
317 4 0.544647 0.9011 0.260215
318 4 0.455523 0.108898 0.750844
319 4 0.694706 0.177686 0.839035
320 4 0.795394 0.914929 0.259994
321 4 0.970714 0.499928 0.157728
322 4 0.0225125 0.512596 0.866073
323 4 0.236974 0.479364 0.68681
324 4 0.231559 0.450863 0.336861
325 4 0.996599 0.00227455 0.328102
326 4 0.976329 0.0275211 0.602871
327 4 0.27832 0.989255 0.81223
328 4 0.29662 0.98669 0.15287
329 4 0.482462 0.44092 0.0972641
330 4 0.506358 0.482533 0.824807
331 4 0.754988 0.496968 0.635443
332 4 0.726891 0.522078 0.335413
333 4 0.500171 0.00486202 0.384174
334 4 0.511119 0.985798 0.685274
335 4 0.715783 0.0038405 0.874201
336 4 0.741072 0.0234333 0.162879
ITEM: TIMESTEP
2000
ITEM: NUMBER OF ATOMS
336
ITEM: BOX BOUNDS xy xz yz pp pp pp
-2.0953870577396433e-01 2.6469375308966434e+01 -8.7145139953234571e-02
-2.5820087048659990e-01 1.1702705947506878e+01 -1.7018577254267878e-02
-7.6704908217902279e-01 1.1476048715978948e+01 -1.2949528157974324e-01
ITEM: ATOMS id type xs ys zs
1 1 0.0773403 0.334923 0.450647
2 1 0.895207 0.626626 0.617745
3 1 0.160509 0.683267 0.931786
4 1 0.383925 0.326695 0.131576
5 1 0.89701 0.837473 0.0995601
6 1 0.08729 0.178496 0.903868
7 1 0.376596 0.168353 0.565609
8 1 0.154956 0.864627 0.427346
9 1 0.605947 0.313782 0.355865
10 1 0.400508 0.679297 0.605834
11 1 0.664549 0.661329 0.884531
12 1 0.847909 0.351837 0.113189
13 1 0.385048 0.814774 0.0880125
14 1 0.618542 0.159821 0.876751
15 1 0.817198 0.0969822 0.600559
16 1 0.628431 0.848379 0.341708
17 1 0.0210931 0.262324 0.300259
18 1 0.9669 0.729239 0.718552
19 1 0.220846 0.745268 0.782499
20 1 0.296737 0.24943 0.175528
21 1 0.974628 0.767396 0.208268
22 1 0.0199526 0.25297 0.782339
23 1 0.309314 0.240174 0.705189
24 1 0.198078 0.743669 0.282011
25 1 0.526975 0.255235 0.25607
26 1 0.467941 0.737692 0.747796
27 1 0.727528 0.737093 0.743109
28 1 0.772455 0.266586 0.218685
29 1 0.450136 0.739531 0.225334
30 1 0.549481 0.224064 0.754927
31 1 0.787949 0.230761 0.7523
32 1 0.709626 0.771615 0.264845
33 1 0.10013 0.369443 0.245823
34 1 0.902287 0.602518 0.824362
35 1 0.1598 0.584953 0.74284
36 1 0.33895 0.392068 0.306439
37 1 0.908588 0.905997 0.297448
38 1 0.0609329 0.0650881 0.738622
39 1 0.381842 0.108067 0.762278
40 1 0.168151 0.947695 0.241327
41 1 0.58614 0.389436 0.165108
42 1 0.406228 0.56768 0.779906
43 1 0.656114 0.615242 0.686256
44 1 0.846162 0.368538 0.318003
45 1 0.394912 0.899247 0.282292
46 1 0.605413 0.0613728 0.694223
47 1 0.823639 0.0383054 0.797654
48 1 0.661695 0.915469 0.154627
49 2 0.0980943 0.256089 0.46531
50 2 0.863591 0.661689 0.575935
51 2 0.129261 0.749251 0.927662
52 2 0.405758 0.254899 0.168952
53 2 0.869496 0.76584 0.11687
54 2 0.118917 0.243429 0.889246
55 2 0.400976 0.249626 0.570892
56 2 0.114989 0.843766 0.411256
57 2 0.635359 0.246338 0.357374
58 2 0.36597 0.731195 0.618905
59 2 0.636748 0.711664 0.929229
60 2 0.871579 0.273008 0.104001
61 2 0.354337 0.754155 0.0953413
62 2 0.647791 0.223624 0.84836
63 2 0.856839 0.118118 0.592462
64 2 0.60218 0.781415 0.326544
65 2 0.0777947 0.367748 0.535234
66 2 0.908644 0.560077 0.563685
67 2 0.161211 0.657478 0.01994
68 2 0.409718 0.345832 0.0632373
69 2 0.886602 0.865288 0.0137929
70 2 0.0973458 0.147757 0.987295
71 2 0.382039 0.138382 0.479305
72 2 0.158421 0.883806 0.516227
73 2 0.614559 0.363557 0.431673
74 2 0.39907 0.654282 0.520033
75 2 0.678554 0.59864 0.947623
76 2 0.85266 0.411099 0.0434781
77 2 0.381577 0.844707 0.00415042
78 2 0.626851 0.142824 0.963179
79 2 0.801808 0.0694577 0.517969
80 2 0.612723 0.893297 0.413871
81 2 0.980633 0.254389 0.283458
82 2 0.00799779 0.738343 0.709656
83 2 0.260362 0.766087 0.770742
84 2 0.260198 0.245463 0.136433
85 2 0.0156073 0.780629 0.207589
86 2 0.981194 0.288447 0.780546
87 2 0.26951 0.247029 0.715026
88 2 0.232987 0.691148 0.280118
89 2 0.487807 0.232891 0.270712
90 2 0.506729 0.760117 0.759403
91 2 0.769366 0.744423 0.741102
92 2 0.730438 0.262343 0.216408
93 2 0.48585 0.689905 0.23135
94 2 0.509982 0.252752 0.759195
95 2 0.757334 0.289175 0.779532
96 2 0.74825 0.749903 0.287385
97 2 0.0373716 0.174034 0.301987
98 2 0.958979 0.820826 0.7358
99 2 0.202941 0.816944 0.747812
100 2 0.297769 0.167059 0.209512
101 2 0.968982 0.677954 0.233072
102 2 0.04565 0.325279 0.757896
103 2 0.324759 0.326867 0.726475
104 2 0.169499 0.684796 0.250332
105 2 0.539885 0.178073 0.208505
106 2 0.450115 0.805247 0.79542
107 2 0.717271 0.820256 0.712716
108 2 0.780373 0.177174 0.228386
109 2 0.427748 0.674139 0.265269
110 2 0.571958 0.293511 0.717567
111 2 0.822775 0.279446 0.763583
112 2 0.699121 0.69318 0.221468
113 2 0.12907 0.302322 0.234724
114 2 0.878258 0.670741 0.858168
115 2 0.128613 0.632602 0.704786
116 2 0.361109 0.338531 0.365565
117 2 0.880651 0.857363 0.346707
118 2 0.0800074 0.0300499 0.664314
119 2 0.411626 0.163103 0.799032
120 2 0.130563 0.935585 0.205785
121 2 0.608477 0.337039 0.108877
122 2 0.375492 0.580257 0.843517
123 2 0.630595 0.688681 0.672045
124 2 0.868489 0.294107 0.341256
125 2 0.367219 0.850143 0.32883
126 2 0.634863 0.0929657 0.64133
127 2 0.862761 0.0673963 0.806851
128 2 0.640075 0.848495 0.105171
129 2 0.113659 0.436711 0.193257
130 2 0.900769 0.54384 0.895818
131 2 0.156506 0.498233 0.706358
132 2 0.332363 0.469725 0.358427
133 2 0.910159 0.989757 0.338352
134 2 0.0355423 0.996688 0.763771
135 2 0.388179 0.035699 0.814394
136 2 0.184861 0.0172516 0.19377
137 2 0.580071 0.472103 0.128245
138 2 0.415418 0.479363 0.80046
139 2 0.640969 0.551342 0.625754
140 2 0.85488 0.430454 0.384466
141 2 0.392257 0.985601 0.319149
142 2 0.599097 0.974149 0.662711
143 2 0.820637 0.959342 0.84691
144 2 0.664001 0.989751 0.100758
145 3 0.104898 0.402245 0.364302
146 3 0.877095 0.568198 0.720341
147 3 0.140762 0.590268 0.859268
148 3 0.375975 0.418053 0.218151
149 3 0.882691 0.918815 0.187673
150 3 0.0998806 0.0833744 0.823975
151 3 0.397067 0.0871218 0.64263
152 3 0.168163 0.96883 0.363505
153 3 0.615919 0.400334 0.269233
154 3 0.385147 0.577171 0.66751
155 3 0.637877 0.590289 0.799215
156 3 0.868601 0.41059 0.212057
157 3 0.375876 0.909179 0.166417
158 3 0.631234 0.0609448 0.803055
159 3 0.816088 0.00156932 0.681695
160 3 0.624869 0.928986 0.24482
161 3 0.0258632 0.295504 0.418326
162 3 0.938362 0.709797 0.614598
163 3 0.207797 0.743612 0.900981
164 3 0.336941 0.267287 0.0924814
165 3 0.949143 0.786619 0.101419
166 3 0.0375028 0.232612 0.897075
167 3 0.324431 0.219315 0.588351
168 3 0.185663 0.76077 0.400222
169 3 0.554527 0.258998 0.36273
170 3 0.446775 0.747687 0.633866
171 3 0.706435 0.742023 0.857237
172 3 0.794628 0.30351 0.111912
173 3 0.43312 0.751116 0.106934
174 3 0.568542 0.214237 0.870128
175 3 0.790016 0.201058 0.633266
176 3 0.674846 0.786584 0.362261
177 3 0.0490522 0.3257 0.212996
178 3 0.952576 0.654149 0.814407
179 3 0.20755 0.641914 0.71138
180 3 0.293329 0.322725 0.275664
181 3 0.958855 0.848537 0.300645
182 3 0.0251045 0.156633 0.702793
183 3 0.330902 0.158445 0.784783
184 3 0.200654 0.847787 0.210371
185 3 0.532813 0.347445 0.172862
186 3 0.45171 0.63707 0.811625
187 3 0.709609 0.648494 0.664065
188 3 0.791476 0.338061 0.314587
189 3 0.443886 0.840719 0.30039
190 3 0.559038 0.128763 0.676796
191 3 0.792651 0.138192 0.835408
192 3 0.711221 0.859313 0.17937
193 3 0.0949052 0.526579 0.38404
194 3 0.878908 0.441174 0.699681
195 3 0.138944 0.475121 0.914029
196 3 0.363837 0.527446 0.159303
197 3 0.881452 0.0402708 0.148885
198 3 0.110593 0.977231 0.889305
199 3 0.382555 0.965754 0.610014
200 3 0.13349 0.0669641 0.389935
201 3 0.610246 0.5177 0.319293
202 3 0.394964 0.4665 0.604522
203 3 0.641778 0.463682 0.817428
204 3 0.863984 0.539642 0.210116
205 3 0.389051 0.0265656 0.125026
206 3 0.623449 0.945524 0.856619
207 3 0.853204 0.91147 0.642937
208 3 0.620829 0.0550655 0.273919
209 3 0.985616 0.373606 0.467083
210 3 0.973284 0.6996 0.517361
211 3 0.251383 0.693906 0.965729
212 3 0.319126 0.331519 0.992833
213 3 0.984916 0.848526 0.0254189
214 3 0.998335 0.166802 0.965682
215 3 0.286436 0.154107 0.520549
216 3 0.233675 0.770911 0.466886