LAMMPS data file via write_data, version 15 Apr 2020, timestep = 80000

336 atoms
4 atom types

-1.0432248947003533e+00 2.7407225215100997e+01 xlo xhi
-4.0756740838263106e-01 1.1981567766982703e+01 ylo yhi
-1.6790075892220813e-01 1.0876900392722009e+01 zlo zhi
1.0745038328824115e+00 -1.3737114470842213e+00 -3.9789367224810185e-01 xy xz yz

Masses

1 12.0107
2 1.00794
3 14.0067
4 15.9994

Atoms # full

1 1 1 5.9510017796110787e-02 1.7218054722471599e-01 4.9970362095254588e+00 4.8617413795793496e+00 0 0 0
2 1 1 6.3752369486704125e-02 2.3735726656136414e+01 7.7473983633278820e+00 8.6598614348038936e+00 0 0 0
3 1 1 5.1867126318409229e-02 4.4154172045572837e+00 6.2431852188689971e+00 9.6398455046123157e+00 0 0 0
4 1 1 5.8729951013889517e-02 9.8368617982596351e+00 4.5352809101632907e+00 2.9312464426243938e+00 0 0 0
5 1 1 3.3113405044379429e-02 2.5758668511295866e+01 1.1700169291081071e+01 4.0117434807146877e+00 0 0 0
6 1 1 6.0254078977794223e-02 -1.6011048912157240e+00 -1.7025366475980480e-01 1.0434327040745147e+01 0 0 0
7 1 1 4.7006550840192660e-02 7.5798909671092449e+00 1.3478797004672862e+00 8.2440267757469723e+00 0 0 0
8 1 1 5.0606269812655397e-02 6.3740382585511615e+00 1.1529826158957741e+01 2.5724670923213933e+00 0 0 0
9 1 1 6.0185116801009172e-02 1.6503608680629803e+01 3.9239084255009349e+00 3.1934415212768097e+00 0 0 0
10 1 1 5.5522746217893423e-02 8.9534895749304155e+00 6.9395744430493531e+00 6.9672075842255845e+00 0 0 0
11 1 1 5.3125587123344635e-02 1.6373491238210558e+01 6.8650645543763948e+00 7.5784446035029003e+00 0 0 0
12 1 1 5.0179528294244997e-02 2.2825382452769841e+01 4.4130356586058905e+00 1.1545350186650336e+00 0 0 0
13 1 1 5.5024021843955689e-02 1.4043351868617975e+01 1.0087375700183598e+01 8.7581952734956992e-01 0 0 0
14 1 1 4.2152180294506278e-02 1.3751468357026173e+01 2.5351954202136948e+00 7.8997200051036458e+00 0 0 0
15 1 1 4.9478366471752411e-02 2.0791415299718846e+01 7.2799718415422054e-01 6.4328432388620378e+00 0 0 0
16 1 1 2.8926288044083242e-02 2.0273659170031426e+01 8.3511651282128163e+00 3.5021454408691626e+00 0 0 0
17 1 1 5.5273532635468497e-02 1.5783584059048241e+00 3.3225516508397575e+00 3.7012186226214596e+00 0 0 0
18 1 1 4.9471116936057699e-02 2.6263364516997278e+01 7.6667984352598193e+00 8.1978715550988568e+00 0 0 0
19 1 1 3.9587279173553452e-02 3.9575881172480809e+00 8.6964294807451488e+00 8.9571849180510164e+00 0 0 0
20 1 1 5.1870736276286133e-02 8.5811272928089988e+00 2.3859825029384334e+00 3.1348095914900167e+00 0 0 0
21 1 1 4.4398146887785823e-02 2.6034949226822626e+01 9.4560521396077455e+00 2.8295459069463162e+00 0 0 0
22 1 1 6.0974416764915745e-02 2.6495056342315308e+01 1.4442821027378541e+00 8.4705011036535645e+00 -1 0 0
23 1 1 4.7991477292702922e-02 5.0544095967224871e+00 1.4786641640252114e+00 8.2477998261484391e+00 0 0 0
24 1 1 2.5625737995329370e-02 7.5711939896856126e+00 9.6185414284623665e+00 3.5803066407410755e+00 0 0 0
25 1 1 6.0284338997596026e-02 1.4773794470250261e+01 3.4375075425799135e+00 1.4397268394448097e+00 0 0 0
26 1 1 6.6656866303134540e-02 1.1172108944472026e+01 7.9839540262760025e+00 7.5470226808242185e+00 0 0 0
27 1 1 3.4592014225169859e-02 1.7758739755540581e+01 8.7485832544886897e+00 8.4730981046877591e+00 0 0 0
28 1 1 6.3696579525841429e-02 2.1206591987950240e+01 2.7699689419661526e+00 2.2005362220385778e+00 0 0 0
29 1 1 5.7082322097722446e-02 1.3744023494028269e+01 1.0132700536404453e+01 3.3922944820288574e+00 0 0 0
30 1 1 5.4462937225529688e-02 1.2340566317692350e+01 8.3065160061982279e-01 6.6908558865186833e+00 0 0 0
31 1 1 5.8041198786454723e-02 1.9904875349830391e+01 1.7032703633000081e+00 8.6410670468036788e+00 0 0 0
32 1 1 3.1298536586048163e-02 2.1511792449948199e+01 1.0210774204667294e+01 2.4453320058836674e+00 0 0 0
33 1 1 6.0865862026427436e-02 2.6927356897451658e+00 5.3265099820122197e+00 4.8073488093390093e+00 0 0 0
34 1 1 5.2526537670836086e-02 2.5276075711125749e+01 6.2076565257386385e+00 1.0082098904464578e+01 0 0 0
35 1 1 4.9133230381719906e-02 2.1056035706798424e+00 7.2590427737450653e+00 9.9127002880422221e+00 0 0 0
36 1 1 4.5981641647125024e-02 7.3378081207594583e+00 4.6143198060265913e+00 2.6421457789900256e+00 0 0 0
37 1 1 3.9310016894042302e-02 -3.8042289940314378e-01 1.0804399797219835e+01 3.6852646609334219e+00 1 0 0
38 1 1 4.3809982815560956e-02 5.6233939300179614e-02 1.6015389358952064e+00 9.9690431044322256e+00 0 0 0
39 1 1 5.5097117290137720e-02 7.3124513395257713e+00 1.1652795406737354e+01 8.7195179203089577e+00 0 -1 0
40 1 1 3.6692821767482231e-02 5.0708407525353429e+00 9.9157495619259617e+00 4.0534494236390799e+00 0 0 0
41 1 1 5.7468992646960135e-02 1.6511950983463962e+01 5.3370588651013389e+00 1.0320192480643346e+00 0 0 0
42 1 1 4.7036420622670085e-02 1.0393444821031746e+01 5.8347487912965814e+00 8.7776089695283197e+00 0 0 0
43 1 1 6.8645730749563302e-02 1.8980086405533044e+01 6.6717903751264780e+00 7.8668092029954817e+00 0 0 0
44 1 1 5.6068169148921078e-02 2.2930221547770799e+01 3.8454868134645324e+00 3.6620856206044112e+00 0 0 0
45 1 1 5.4043370728330035e-02 1.1872487529484898e+01 9.2071237907724246e+00 2.0249213816577520e+00 0 0 0
46 1 1 5.6758419262252433e-02 1.4958451576244059e+01 7.0163035242574923e-01 6.6805618969786389e+00 0 0 0
47 1 1 5.4609330784420762e-02 2.1766091938232091e+01 -7.1366641251626062e-02 8.6346956903154943e+00 0 0 0
48 1 1 4.7349040075325421e-02 1.8982560592934913e+01 1.0165091108032721e+01 2.2781583721868426e+00 0 0 0
49 1 2 2.4337622190361832e-01 4.8214488941833000e-02 4.4520370841059309e+00 5.8594937819339057e+00 0 0 0
50 1 2 2.1817833989675167e-01 2.3619519385065583e+01 8.6550343979823232e+00 9.3066899902708382e+00 0 0 0
51 1 2 2.6371668618296884e-01 4.7651449371343126e+00 6.4801325282561404e+00 1.0681683363346849e+01 0 0 0
52 1 2 2.7083380775769700e-01 1.0109235716482166e+01 4.7085224770013037e+00 3.9465275770006922e+00 0 0 0
53 1 2 2.3186174745139099e-01 2.5483735528811735e+01 1.1451317108960293e+01 5.0126113038149871e+00 0 0 0
54 1 2 2.2894146347084809e-01 -8.2826426955345989e-01 4.6938724881464888e-01 2.6406214769550068e-01 0 0 1
55 1 2 2.4911955026723204e-01 7.6698012110063143e+00 1.7172038187563210e+00 9.2442939950631544e+00 0 0 0
56 1 2 2.2195461960101073e-01 5.4889315594086030e+00 -1.0879166304129639e-01 3.3771583994703471e+00 0 1 0
57 1 2 2.4405223416312360e-01 1.7209746268121105e+01 3.1181341003897396e+00 2.9917671180556291e+00 0 0 0
58 1 2 2.2855356082041683e-01 8.3718812414547799e+00 7.4762137284646348e+00 7.6556730793609047e+00 0 0 0
59 1 2 2.5475577047760711e-01 1.6160269108104124e+01 7.0539962638586111e+00 6.5061665355702418e+00 0 0 0
60 1 2 2.3907996673963769e-01 2.3648928981796022e+01 3.8309977013510030e+00 6.8082787035773140e-01 0 0 0
61 1 2 2.6088198541987312e-01 1.4715267211277215e+01 9.2447135964437894e+00 6.0435831610937196e-01 0 0 0
62 1 2 2.6781695911869641e-01 1.3807178551610338e+01 3.3528931720174584e+00 7.1896280662160361e+00 0 0 0
63 1 2 2.4114671370907548e-01 2.1069730724508425e+01 1.3423206513418859e+00 5.5284254861843758e+00 0 0 0
64 1 2 2.5797116224887001e-01 2.0136878985836411e+01 7.5536330320564202e+00 2.6842104757227809e+00 0 0 0
65 1 2 2.4731733460537186e-01 -6.8774512756053841e-01 5.6798256298047640e+00 4.8031237394269599e+00 0 0 0
66 1 2 2.3895074875353578e-01 2.2730433830160585e+01 7.6230187042212378e+00 8.1540127075268884e+00 0 0 0
67 1 2 2.3721283081397060e-01 4.9579529904924202e+00 5.3781392887851558e+00 9.2971212195281208e+00 0 0 -1
68 1 2 2.5444604720934727e-01 1.0809507258607978e+01 4.8389268400546284e+00 2.3764668135038254e+00 0 0 1
69 1 2 2.4868162371968899e-01 2.4246256640565328e+01 3.2685221007783660e-01 3.8069260058100189e+00 0 1 1
70 1 2 2.4138520129317170e-01 -5.1377097047962206e-01 1.1121224547511018e+01 1.0531300184349538e+01 0 -1 -1
71 1 2 2.6107391577637334e-01 8.4966947491160880e+00 1.6540139005351144e+00 7.7894561094218560e+00 0 0 0
72 1 2 2.7766758916621365e-01 5.1278574312946681e+00 -1.7888457977510047e-01 1.7134953901443937e+00 0 1 0
73 1 2 2.2847431399918033e-01 1.6664829683501605e+01 4.1652137485570071e+00 4.3019094567845064e+00 0 0 0
74 1 2 2.4092930736888363e-01 8.3000074915730231e+00 6.8512387303124687e+00 6.0543503245723151e+00 0 0 0
75 1 2 2.5671897638116109e-01 1.5535082589727249e+01 6.2575412402152955e+00 7.9498451387652054e+00 0 0 -1
76 1 2 2.4853065158265400e-01 2.2739759130096562e+01 5.2832784252957330e+00 4.7145772175900647e-01 0 0 1
77 1 2 2.3064638606583027e-01 1.4220698271367182e+01 1.0790080119608708e+01 -6.0957036835144751e-03 0 0 1
78 1 2 2.5698711854706280e-01 1.3693128426954306e+01 3.0901016117914470e+00 8.8472561933859399e+00 0 0 -1
79 1 2 2.4062203432943902e-01 2.0177905632870193e+01 -9.1897904521470009e-02 5.9565534183088982e+00 0 0 0
80 1 2 2.2921924547392758e-01 2.0219210844265220e+01 7.7122279167720560e+00 4.3777107570352811e+00 0 0 0
81 1 2 2.5203447993164713e-01 1.7154833084829864e+00 2.7636923687973183e+00 2.7313302368933243e+00 1 0 0
82 1 2 2.2969130428056805e-01 2.6895205950962140e+01 7.5271830480986797e+00 7.3116402396265547e+00 -1 0 0
83 1 2 2.4170765724398158e-01 4.2233625629274725e+00 9.3900123145243466e+00 8.1521165039121311e+00 0 0 0
84 1 2 2.4437907366061046e-01 8.5749745704834961e+00 1.2979942730375320e+00 2.9054711532656481e+00 0 0 0
85 1 2 2.3815987864659444e-01 2.5673312753196431e+01 8.8166894152501172e+00 2.0261980508791844e+00 -1 0 0
86 1 2 2.2376836486283319e-01 2.6206323855116807e+01 1.4971147518594694e+00 7.4389728349558188e+00 0 0 0
87 1 2 2.3970733570136568e-01 4.1686263521261218e+00 2.0218463478613917e+00 7.7718141113201664e+00 0 0 0
88 1 2 2.2455179802510794e-01 8.2291407858315075e+00 8.7655056532105551e+00 3.3249717412152235e+00 0 0 0
89 1 2 2.7118150947526887e-01 1.3673638045247904e+01 3.3031488422545814e+00 1.3013964374400702e+00 0 0 0
90 1 2 2.6007115999986258e-01 1.2121435054176516e+01 8.2838865109451962e+00 6.9753475269719623e+00 0 0 0
91 1 2 2.4719380156491857e-01 1.7861849647149775e+01 9.5259120309004182e+00 9.2660710562891140e+00 0 0 0
92 1 2 2.4077575801549733e-01 2.0165716409562179e+01 2.4172589332029895e+00 2.1459321335910881e+00 0 0 0
93 1 2 2.2383243508645562e-01 1.3868936377407181e+01 1.0689680674827486e+01 4.3132879112772322e+00 0 0 0
94 1 2 2.5160668244786777e-01 1.1564193271699708e+01 8.1885641433096290e-02 7.0625738555705952e+00 0 0 0
95 1 2 2.5028200113967042e-01 1.8971705549518337e+01 1.9114429663389583e+00 9.1491572160996171e+00 0 0 0
96 1 2 2.5572679079085436e-01 2.2246937821672834e+01 1.0972806545982696e+01 2.7306290712655450e+00 0 0 0
97 1 2 2.4873974216358433e-01 1.7218485010633948e+00 2.6884193993397778e+00 4.5843013278915707e+00 0 0 0
98 1 2 2.3477795191497344e-01 2.6629706727664903e+01 8.5568944529723261e+00 8.7531475406788832e+00 0 0 0
99 1 2 2.6291226956888525e-01 4.1156869384978219e+00 9.2567429014581979e+00 9.9279373966690549e+00 0 0 0
100 1 2 2.5580548627872884e-01 8.3902579817410565e+00 2.4094724234512772e+00 4.1956043698107850e+00 0 0 0
101 1 2 2.5727274537626077e-01 2.5944810753448188e+01 8.7734268955744330e+00 3.7555825962360148e+00 0 0 0
102 1 2 2.5440285801978840e-01 2.5791236603158140e+01 2.2455006866530005e+00 8.8575468072846189e+00 -1 0 0
103 1 2 2.3353866109352064e-01 4.9891801098301283e+00 1.7675121175295270e+00 9.3280076441307020e+00 0 0 0
104 1 2 2.5177917755939683e-01 8.0406797865404247e+00 1.0169395189322104e+01 4.4077748113473820e+00 0 0 0
105 1 2 2.6953943251794132e-01 1.5188392862666829e+01 2.5794104112630070e+00 9.5082991851925147e-01 0 0 0
106 1 2 2.5693268174335926e-01 1.0979828769157713e+01 8.9638591891871613e+00 8.0930052349329777e+00 0 0 0
107 1 2 2.8799134053054609e-01 1.7868617622758265e+01 9.1895501078894473e+00 7.4973249193482863e+00 0 0 0
108 1 2 2.3574516617255700e-01 2.1772135194750827e+01 1.8077234939951499e+00 1.9890560483572530e+00 0 0 0
109 1 2 2.2388994819261918e-01 1.4164873781980466e+01 9.1197515625600225e+00 3.7520584295746837e+00 0 0 0
110 1 2 2.4692994355461162e-01 1.1923722557516017e+01 1.1110928772358886e+00 5.6823222907884139e+00 0 0 0
111 1 2 2.4567237244501997e-01 2.0579080356466466e+01 2.5762753018625388e+00 8.7933659351332665e+00 0 0 0
112 1 2 2.7311869454394422e-01 2.1739772561832680e+01 9.7895463588009211e+00 1.4367214085283782e+00 0 0 0
113 1 2 2.3758878781752937e-01 2.9426897306135285e+00 4.8206951541492327e+00 5.7878319852025442e+00 0 0 0
114 1 2 2.1258998836343551e-01 2.6838187485083424e+01 7.2465391177643736e+00 -7.4632410417173792e-02 0 0 1
115 1 2 2.2422394950648961e-01 3.5186474485097561e+00 8.0158964470447600e+00 -4.9120537284317659e-02 0 0 1
116 1 2 2.4266806061724550e-01 6.8676363070099562e+00 4.8977619546201741e+00 3.5785970291606750e+00 0 0 0
117 1 2 2.5301789806596042e-01 -1.4436001527151898e-01 1.0294656492813948e+01 4.6524480222861664e+00 1 0 0
118 1 2 2.4975542433998421e-01 -3.2161246205611915e-01 2.3939650239930019e+00 1.0641565847010403e+01 0 0 0
119 1 2 2.2948553143496975e-01 7.2958779947808994e+00 1.1575184847545010e+01 9.8390096141250591e+00 0 -1 0
120 1 2 2.7422757532538677e-01 4.9864205020285537e+00 1.0420623082103448e+01 5.0177657592470846e+00 0 0 0
121 1 2 2.7280676518453062e-01 1.7210835954348397e+01 4.8193708941953100e+00 4.0722289015208180e-01 0 0 0
122 1 2 2.4039397844150992e-01 9.9634776633672342e+00 6.1430092064655311e+00 9.7252521793665796e+00 0 0 0
123 1 2 2.2681834783619353e-01 1.9465567308139445e+01 6.9495041920381304e+00 6.8717052857686749e+00 0 0 0
124 1 2 2.3335869772894088e-01 2.3672363175136660e+01 3.0329286683460968e+00 3.7642925288388236e+00 0 0 0
125 1 2 2.3263025385848835e-01 1.2063707825472182e+01 8.1432551852298776e+00 2.2487122472278780e+00 0 0 0
126 1 2 2.5709854337830823e-01 1.5285998303679335e+01 1.1852226411141236e+00 5.7586715411030980e+00 0 0 0
127 1 2 2.1399020056123855e-01 2.2742838198187620e+01 4.6942757521910794e-02 9.2123705356324841e+00 0 0 0
128 1 2 2.5984964141187727e-01 1.8852468113931696e+01 9.7220459996732380e+00 1.2600917426103959e+00 0 0 0
129 1 2 2.6772103322585927e-01 3.3802862571830894e+00 6.2281259275220631e+00 4.7840456322743456e+00 0 0 0
130 1 2 2.3458817781989064e-01 2.5391844631692834e+01 5.1987453105342052e+00 1.0547322728232167e+01 0 0 0
131 1 2 2.3066217603891798e-01 1.0681825129138947e+00 7.0077935084210168e+00 9.7177359736515569e+00 0 0 0
132 1 2 2.4158614458639388e-01 6.5470840188426216e+00 5.0274146343423247e+00 1.9720361621528082e+00 0 0 0
133 1 2 2.7400926137849124e-01 6.0952927626321629e-01 1.1088566626862177e+01 3.3622355942207967e+00 1 0 0
134 1 2 2.1195305815933874e-01 1.1477480857928950e+00 1.7544284625934106e+00 9.9534426892962209e+00 0 0 0
135 1 2 2.2573637162137128e-01 7.2974354159749719e+00 1.0555736352407639e+01 8.3574918954717710e+00 0 -1 0
136 1 2 2.5687889594585711e-01 4.1990222461695561e+00 9.2585461253284684e+00 3.9489051249685412e+00 0 0 0
137 1 2 2.7373139313262396e-01 1.6641560434356521e+01 6.4362837811010216e+00 6.3594684624919406e-01 0 0 0
138 1 2 2.2847011453937291e-01 1.0739919505844568e+01 4.8184480799201888e+00 9.0986603365249277e+00 0 0 0
139 1 2 2.5308941699181631e-01 1.9668050465238849e+01 5.9095576028168599e+00 8.2948678958906168e+00 0 0 0
140 1 2 2.5038071681925300e-01 2.3027392005911167e+01 4.3951237218502444e+00 4.6589320782600669e+00 0 0 0
141 1 2 2.3166334114240600e-01 1.0746595331596312e+01 9.2112119970479558e+00 1.8796478490200119e+00 0 0 0
142 1 2 2.6260175298478106e-01 1.5632550513135151e+01 -1.3329611711150574e-01 6.8849134827103189e+00 0 0 0
143 1 2 2.2441900589872846e-01 2.2689898121813563e+01 1.1241114651431410e+01 8.6892268193511413e+00 0 -1 0
144 1 2 2.3463200774501017e-01 1.8151306259405093e+01 1.0859039325380492e+01 2.4544096825400419e+00 0 0 0
145 1 3 -2.9977873280006773e-01 1.3474764696329999e+00 5.9240412213865250e+00 5.0727268210924512e+00 0 0 0
146 1 3 -2.6704973008710109e-01 2.3900603571380522e+01 6.5965950984557269e+00 9.6225056335148231e+00 0 0 0
147 1 3 -2.7354187313450995e-01 2.9445156372927341e+00 6.0247662271980067e+00 9.8053054412246894e+00 0 0 0
148 1 3 -2.4878024842070307e-01 8.6304416076296775e+00 5.3384289974679318e+00 2.5444186335406167e+00 0 0 0
149 1 3 -2.6449108484150935e-01 2.6158519531559229e+01 -4.1376257008275741e-01 4.0364882920997811e+00 0 1 0
150 1 3 -2.4188856083822086e-01 -2.4981160509957601e-01 3.4284317609681203e-01 1.0683107409480506e+01 0 0 0
151 1 3 -2.6509472171582571e-01 7.5512097127736357e+00 -1.5052869567808008e-01 8.3542248215058219e+00 0 0 0
152 1 3 -2.3908137357463710e-01 5.0318600144150611e+00 1.0948126462505067e+01 2.9657229738980901e+00 0 0 0
153 1 3 -2.3569513923588400e-01 1.6988476993450213e+01 5.1622276611866225e+00 2.4098534391731175e+00 0 0 0
154 1 3 -2.6694800508597727e-01 9.3266801536246753e+00 5.6957955572771590e+00 7.7618503429203116e+00 0 0 0
155 1 3 -2.9363497872668787e-01 1.7645020559811449e+01 6.0724379522986451e+00 7.5102271554921227e+00 0 0 0
156 1 3 -2.6004609061687400e-01 2.3417911143499097e+01 4.7264926839269981e+00 2.4996596159714399e+00 0 0 0
157 1 3 -2.7024240953961720e-01 1.2659136711639817e+01 9.5340262324323302e+00 7.7491102468666917e-01 0 0 0
158 1 3 -2.2901746900507292e-01 1.4994046748913281e+01 1.6376278885535300e+00 7.8229539604658020e+00 0 0 0
159 1 3 -2.5117444288190521e-01 2.1936622733485887e+01 1.8577191946484173e-01 7.1509115966705767e+00 0 0 0
160 1 3 -2.4662295572020670e-01 1.8985072112519912e+01 9.1387021090557834e+00 3.3616824764959072e+00 0 0 0
161 1 3 -2.6697277152216037e-01 2.1743704871915592e-01 3.8514971248775423e+00 3.8822061346034884e+00 0 0 0
162 1 3 -2.5976232647402331e-01 2.4864210167083336e+01 8.0352089058354448e+00 7.7151637269685525e+00 0 0 0
163 1 3 -2.7234764313752180e-01 4.8303060218429250e+00 7.4475918791811271e+00 8.9016496551520063e+00 0 0 0
164 1 3 -2.6466517624687819e-01 9.8977565125891971e+00 3.0457505684912234e+00 2.8590879335324697e+00 0 0 0
165 1 3 -2.5529525330400310e-01 2.5162851305837094e+01 1.0658789708238167e+01 3.1194006941794119e+00 0 0 0
166 1 3 -2.8970932543237365e-01 2.5978255273390300e+01 2.8055700740834322e-01 9.2738102344902327e+00 -1 0 0
167 1 3 -2.7675212636409580e-01 6.3569241818373969e+00 2.0679095545246398e+00 7.8003101022842714e+00 0 0 0
168 1 3 -2.3984817975967052e-01 7.5380901125807007e+00 1.0602908474053788e+01 2.4430876919065945e+00 0 0 0
169 1 3 -2.7819804834061518e-01 1.5188148631164811e+01 3.3050567667497286e+00 2.8788907830939965e+00 0 0 0
170 1 3 -2.9519032529100769e-01 1.0063660584802928e+01 7.8469430064785310e+00 6.5809828772843231e+00 0 0 0
171 1 3 -2.2477302650951092e-01 1.6394341733079635e+01 8.1227239496327837e+00 8.3728218207339768e+00 0 0 0
172 1 3 -3.0042684138613623e-01 2.1511306342842758e+01 3.6831810704461478e+00 1.0717236751347050e+00 0 0 0
173 1 3 -2.6924284406291910e-01 1.4542152775177662e+01 1.0541913471842012e+01 2.2261332038906181e+00 0 0 0
174 1 3 -2.7395435802757673e-01 1.2365244623890385e+01 1.9626342325964741e+00 7.6416530061834358e+00 0 0 0
175 1 3 -2.2878924854573121e-01 1.9754169388270899e+01 1.6112605626245693e+00 7.1567688067942941e+00 0 0 0
176 1 3 -2.0045407429697051e-01 2.1590852626456208e+01 9.0689316299364737e+00 3.4472689799598175e+00 0 0 0
177 1 3 -2.6125994714875328e-01 2.7724818837423131e+00 4.2397205195290821e+00 3.7978487752157206e+00 0 0 0
178 1 3 -2.8677126016100624e-01 2.6374945371208778e+01 6.4459054887247325e+00 9.0302380256960291e+00 0 0 0
179 1 3 -2.4759358809222648e-01 2.5013674989097492e+00 8.5002698285555063e+00 9.1541149759062073e+00 0 0 0
180 1 3 -2.6903304926457455e-01 7.3923867038473503e+00 3.0644841178884943e+00 2.6113020553896686e+00 0 0 0
181 1 3 -2.3662297889868761e-01 2.7501411572813581e+01 9.6775742906961764e+00 2.7927148379616522e+00 0 0 0
182 1 3 -2.1209430357740167e-01 -5.6512202635733266e-01 1.9790511262093080e+00 8.6688602664334944e+00 0 0 0
183 1 3 -2.7831950115766535e-01 4.9750984398531273e+00 -2.9032308104952831e-02 8.3570017360478435e+00 0 0 0
184 1 3 -2.4507016256886499e-01 6.3140295564411133e+00 9.0545362813184074e+00 4.1437269391987019e+00 0 0 0
185 1 3 -2.7240105064437198e-01 1.5195003918875772e+01 4.6625879490664239e+00 6.9800219506198757e-01 0 0 0
186 1 3 -2.7666840979222107e-01 1.1478047739933906e+01 6.8510486139248661e+00 8.5224447870900484e+00 0 0 0
187 1 3 -2.7947870888477822e-01 1.9009142838461884e+01 7.9234452911531044e+00 8.6452244460704026e+00 0 0 0
188 1 3 -2.9203842134275787e-01 2.1631396684416828e+01 3.1688637810911464e+00 3.6010688402470175e+00 0 0 0
189 1 3 -2.4817949626336441e-01 1.2249060822872714e+01 9.9297928652493379e+00 3.2856136011631247e+00 0 0 0
190 1 3 -2.7308723730660850e-01 1.3653895080178270e+01 8.7067962004148958e-02 6.3639399464269113e+00 0 0 0
191 1 3 -2.9263486067788397e-01 2.0640264497454019e+01 5.9664043511501275e-01 9.3844024564147581e+00 0 0 0
192 1 3 -2.4992175810930187e-01 2.0263014813147677e+01 1.0967564946624240e+01 2.1690497120241292e+00 0 0 0
193 1 3 5.3383948466569642e-01 1.1756336789660122e+00 7.2786208942759334e+00 4.3934112025514711e+00 0 0 0
194 1 3 5.2740402343863801e-01 2.2958405501608958e+01 5.4419096644165901e+00 9.3360973708518067e+00 0 0 0
195 1 3 4.9965313926565741e-01 2.4456209921941934e+00 4.9074935477278094e+00 8.8800982560259740e+00 0 0 0
196 1 3 5.3306892756414070e-01 8.8239952750428863e+00 5.7980366979553359e+00 1.1053882697366202e+00 0 0 0
197 1 3 4.6231820466269380e-01 2.6543986210278248e+01 7.4284493555309550e-01 3.1100215104698732e+00 0 0 0
198 1 3 4.5712268930102951e-01 7.7538210688619280e-01 -7.7405142529032966e-01 1.0329260744089938e+01 0 1 0
199 1 3 5.2891583139518128e-01 9.2849902307640324e+00 1.1548112016590428e+01 7.1390288778357567e+00 0 0 0
200 1 3 4.7367723846223186e-01 3.0022582343544668e+00 -3.3878865593191776e-01 3.4054745012270682e+00 0 0 0
201 1 3 4.6804087852513565e-01 1.6673048945033500e+01 6.4406851814355219e+00 3.1912522198442215e+00 0 0 0
202 1 3 4.9254589522459791e-01 9.6669389009290771e+00 4.5566372426157606e+00 6.8027517410430418e+00 0 0 0
203 1 3 5.1242307967542944e-01 1.7500449372564788e+01 4.7669266305264735e+00 8.2784814268880922e+00 0 0 0
204 1 3 5.0208875041619738e-01 2.3169067845063985e+01 6.2193578576184798e+00 2.7582758414301392e+00 0 0 0
205 1 3 4.8422243481214211e-01 1.1819337008169029e+01 1.0460533506696038e+01 -9.0571048819390293e-02 0 -1 0
206 1 3 4.8448501332837102e-01 1.5210006652699800e+01 8.6841773974749836e-01 9.1309593739632220e+00 0 1 0
207 1 3 4.6279943841996773e-01 2.3127047928532765e+01 1.1841248267676638e+00 6.9880658481433935e+00 0 1 0
208 1 3 4.9224175674898152e-01 1.8706145006933347e+01 9.7349721703683407e+00 4.7443384891629616e+00 0 -1 0
209 1 3 5.2442498650347913e-01 -4.5005580656899968e-01 4.1075203885391023e+00 2.5379220769900912e+00 0 0 0
210 1 3 4.7288648310281661e-01 2.4623978163128314e+01 7.4095357343046881e+00 6.3687185356739118e+00 0 0 0
211 1 3 5.1305205562432232e-01 5.0895501655122306e+00 7.0603530465792126e+00 7.4232737556206114e+00 0 0 -1
212 1 3 4.7050931494003284e-01 1.0445428568256652e+01 2.5708219820488858e+00 1.5124343835184033e+00 0 0 1
213 1 3 4.8067770947366273e-01 2.4650394104661210e+01 1.1362457309878524e+01 1.8445756225412167e+00 0 0 1
214 1 3 4.5332645071230399e-01 2.6714343108649114e+01 1.1479322975192014e+01 8.3771489012282725e+00 -1 -1 -1
215 1 3 5.1151631994154589e-01 6.4051768621906797e+00 2.2932854597189962e+00 6.2787909616897011e+00 0 0 0
216 1 3 5.1387381259335141e-01 7.5295841598579072e+00 9.9495830789904041e+00 1.0698296891387646e+00 0 0 0
217 1 3 5.3766339787643480e-01 1.4073205342664082e+01 3.7486550825325562e+00 3.8183442879109353e+00 0 0 0
218 1 3 5.1121268407391274e-01 1.0600290589907296e+01 7.5653172919127503e+00 5.1612477235922807e+00 0 0 0
219 1 3 5.0400484131794288e-01 1.5898753716820300e+01 7.7880373504290183e+00 9.7830481312853070e+00 0 0 -1
220 1 3 4.9972505212273299e-01 2.0299987847227086e+01 4.6118143495721027e+00 9.1404500742191663e-01 0 0 1
221 1 3 4.8413125981572225e-01 1.3830857490325993e+01 -3.5471047384215265e-01 2.3585553105846433e+00 0 1 1
222 1 3 4.8913007577135637e-01 1.1744777653488431e+01 1.6490704185876499e+00 9.0140719069766302e+00 0 0 -1
223 1 3 4.4777007397866780e-01 1.8393774242656043e+01 1.0890398716921270e+00 6.7618005208509429e+00 0 0 0
224 1 3 4.5726683182515843e-01 2.1909384385446888e+01 9.6572854796721437e+00 4.8130235373442627e+00 0 0 0
225 1 3 4.6335060078075929e-01 3.2032977165297636e+00 4.8666545806649593e+00 2.4670085350434632e+00 1 0 0
226 1 3 5.4125899755490203e-01 2.6615645540848043e+01 5.1003923507814886e+00 8.3801717184810496e+00 -1 0 0
227 1 3 5.3575483880962527e-01 1.8421298851697903e+00 8.4884773660802200e+00 7.7565747442970743e+00 0 0 0
228 1 3 5.2490126565998119e-01 6.9438695809710769e+00 2.4597551353826006e+00 1.2843998544557069e+00 0 0 0
229 1 3 4.8035303680371633e-01 2.7959082689029810e+01 9.9795337656264813e+00 1.3687266897438570e+00 -1 0 0
230 1 3 4.5245685067448921e-01 3.0563410819308334e-01 1.4502343630507553e+00 7.5113949729862970e+00 1 0 0
231 1 3 4.9249132207860102e-01 4.4755204844164727e+00 -5.8352109621426662e-01 7.0239738113793653e+00 0 0 0
232 1 3 4.7496375133825025e-01 5.9274134977150350e+00 7.7757970494955302e+00 3.4212131610734668e+00 0 0 0
233 1 3 5.0803925186655452e-01 1.4051995343242968e+01 5.6681787216979771e+00 6.4801096688421034e-01 0 0 0
234 1 3 5.2015213483960432e-01 1.2745972488070008e+01 6.2073452179135105e+00 8.0732311026452290e+00 0 0 0
235 1 3 5.3262822219912354e-01 1.9286422294229350e+01 7.7060857149002544e+00 1.0135799188293236e+01 0 0 0
236 1 3 4.9363840067322035e-01 2.0564217701589122e+01 3.9767243672178436e+00 4.3480032456319027e+00 0 0 0
237 1 3 5.0765515652397541e-01 1.1489880510570986e+01 1.1238930496839087e+01 3.4132042181201991e+00 0 0 0
238 1 3 4.5559364486230480e-01 1.4671758031135697e+01 1.1060220848205855e+01 6.9344480819256118e+00 0 -1 0
239 1 3 4.8745732780986006e-01 1.9692178325726310e+01 -4.1871704112984787e-01 9.9563975939798439e+00 0 0 0
240 1 3 5.0298082261472488e-01 1.9193098701819519e+01 -1.5207140232958544e-01 3.0135492743195269e+00 0 1 0
241 1 4 -4.0601206478406687e-01 -1.2369704711496787e-03 7.7751411031904993e+00 4.2190384259430802e+00 0 0 0
242 1 4 -4.4970064608928628e-01 2.3056980087265860e+01 4.3740045632586124e+00 1.0084094528649256e+01 0 0 0
243 1 4 -3.9006818846346947e-01 1.1821407186919224e+00 4.7326817920706068e+00 8.7537022434333824e+00 0 0 0
244 1 4 -4.2584617843339828e-01 7.8106891197570372e+00 5.9905191046932584e+00 3.2804046651230634e-01 0 0 0
245 1 4 -3.5032734455057229e-01 -6.8431164908232944e-01 8.2485922548619639e-01 2.7169693195785691e+00 1 0 0
246 1 4 -3.3601371542271474e-01 1.5131616332319289e+00 1.0756148317765977e+01 9.4243371348364633e+00 0 0 0
247 1 4 -3.9626184911700929e-01 1.0544093755305132e+01 1.1682502787183790e+01 6.9343290641154844e+00 0 0 0
248 1 4 -3.2099946066240481e-01 2.9448769552204936e+00 1.1688272083031325e+01 3.8793705909052942e+00 0 -1 0
249 1 4 -3.7772802560582158e-01 1.7024645967414457e+01 7.5928100702656636e+00 2.7238368881722410e+00 0 0 0
250 1 4 -4.0286218905688548e-01 8.8585014841734147e+00 3.5563869872427123e+00 6.7157365939994724e+00 0 0 0
251 1 4 -4.1775624917932203e-01 1.8535392063619771e+01 4.0121652410883684e+00 8.5025330056318289e+00 0 0 0
252 1 4 -3.6849639185713884e-01 2.2405317559175543e+01 6.5756964158657620e+00 3.7087726451186964e+00 0 0 0
253 1 4 -3.4656065890039078e-01 1.0937241140859083e+01 1.1187698992245695e+01 5.5178876519924513e-01 0 -1 0
254 1 4 -3.4587509287334484e-01 1.5356764896122723e+01 -4.1785936350962671e-01 9.0224084867012682e+00 0 1 0
255 1 4 -4.4756482520387697e-01 2.3554201872668912e+01 1.3926661772537616e+00 5.7868458113020420e+00 0 1 0
256 1 4 -4.3733903155146786e-01 1.8404863488445287e+01 8.9941338822757242e+00 5.7597360263729938e+00 0 -1 0
257 1 4 -3.7084048390211355e-01 2.1996694207968672e+00 7.8416016629756449e+00 3.8488961702693194e+00 0 0 0
258 1 4 -3.8508010970806561e-01 2.1973919371563468e+01 5.5667088901463311e+00 8.5121245590704628e+00 0 0 0
259 1 4 -4.5142840793727418e-01 3.2761391517089167e+00 4.2822891558738778e+00 8.1005255245930012e+00 0 0 0
260 1 4 -3.9218408280521488e-01 1.0008061143206966e+01 6.1782422707919737e+00 7.2758774470269605e-01 0 0 0
261 1 4 -3.7044367486422197e-01 2.5800291089229177e+01 1.7997020204047613e+00 3.0077803102880818e+00 0 0 0
262 1 4 -3.4964577598372987e-01 4.2394110232656139e+00 1.1909835301316768e+01 9.6857214027173233e-02 0 0 1
263 1 4 -4.2932448569616588e-01 8.6254798771140848e+00 1.0661417917359000e+01 6.4794376231081179e+00 0 0 0
264 1 4 -3.8652832098993439e-01 3.3232091225827514e+00 8.8119166651170122e-01 3.0883712081551171e+00 0 0 0
265 1 4 -3.8104127016961342e-01 1.5873250436973258e+01 6.3852269630549232e+00 4.1974461235802272e+00 0 0 0
266 1 4 -4.0481321083879340e-01 1.0544205997955366e+01 4.7225948856001843e+00 5.8883348938040969e+00 0 0 0
267 1 4 -3.7674650205040494e-01 1.6310977395805203e+01 4.3233377809168081e+00 8.5772139039179542e+00 0 0 0
268 1 4 -3.6159510620699037e-01 2.3704518705712921e+01 7.1139572782533111e+00 1.9710016305735891e+00 0 0 0
269 1 4 -4.2462007677301916e-01 1.0427959271410721e+01 9.8791399117096770e+00 9.6901128621965160e+00 0 -1 -1
270 1 4 -3.2058659526321670e-01 1.5379754662060819e+01 1.4733944985866381e+00 1.0262461198972197e+01 0 1 0
271 1 4 -3.9292943635708216e-01 2.3393483259049482e+01 1.9707543141106654e+00 7.9902443358841335e+00 0 1 0
272 1 4 -3.6440258406689557e-01 1.8389376355130633e+01 1.1000411885580819e+01 4.7654953110698726e+00 0 -1 0
273 1 4 -3.7214392952756870e-01 2.7101745938441645e+01 5.0328402397276841e+00 2.4632487841070838e+00 0 0 0
274 1 4 -3.7574592292120157e-01 2.4809114528982761e+01 8.0587316512383786e+00 5.2615915164864928e+00 -1 0 0
275 1 4 -4.1909889589796373e-01 6.3191864734038141e+00 6.9332532398001883e+00 7.0736009222650127e+00 0 0 -1
276 1 4 -3.0526565192447042e-01 1.1679498342928937e+01 2.2082506522805945e+00 1.3849467468044927e+00 0 0 1
277 1 4 -3.9354534029881644e-01 2.4233454572363751e+01 1.0591205993497242e+01 8.9573969235408346e-01 -1 0 1
278 1 4 -3.4552765675352798e-01 -8.6405010390855508e-01 1.1156423711619349e+01 7.4704274965114337e+00 1 -1 -1