ITEM: TIMESTEP
0
ITEM: NUMBER OF ATOMS
672
ITEM: BOX BOUNDS xy xz yz pp pp pp
0.0000000000000000e+00 2.9982000351000000e+01 0.0000000000000000e+00
0.0000000000000000e+00 1.2154000282300000e+01 0.0000000000000000e+00
0.0000000000000000e+00 2.0017000198400002e+01 0.0000000000000000e+00
ITEM: ATOMS id type xs ys zs
1 1 0.142374 0.0697399 0.155389
2 1 0.642374 0.0697399 0.155389
3 1 0.357626 0.93026 0.655389
4 1 0.857626 0.93026 0.655389
5 1 0.392374 0.93026 0.155389
6 1 0.892374 0.93026 0.155389
7 1 0.107626 0.0697399 0.655389
8 1 0.607626 0.0697399 0.655389
9 1 0.142374 0.56974 0.155389
10 1 0.642374 0.56974 0.155389
11 1 0.357626 0.43026 0.655389
12 1 0.857626 0.43026 0.655389
13 1 0.392374 0.43026 0.155389
14 1 0.892374 0.43026 0.155389
15 1 0.107626 0.56974 0.655389
16 1 0.607626 0.56974 0.655389
17 1 0.188313 0.0487855 0.151245
18 1 0.688313 0.0487855 0.151245
19 1 0.311687 0.951214 0.651245
20 1 0.811687 0.951215 0.651245
21 1 0.438313 0.951214 0.151245
22 1 0.938313 0.951214 0.151245
23 1 0.061687 0.0487855 0.651245
24 1 0.561687 0.0487855 0.651245
25 1 0.188313 0.548786 0.151245
26 1 0.688313 0.548786 0.151245
27 1 0.311687 0.451214 0.651245
28 1 0.811687 0.451215 0.651245
29 1 0.438313 0.451214 0.151245
30 1 0.938313 0.451214 0.151245
31 1 0.061687 0.548785 0.651245
32 1 0.561687 0.548786 0.651245
33 1 0.21475 0.114972 0.110313
34 1 0.71475 0.114972 0.110313
35 1 0.28525 0.885028 0.610313
36 1 0.78525 0.885028 0.610313
37 1 0.46475 0.885028 0.110313
38 1 0.96475 0.885028 0.110313
39 1 0.0352501 0.114972 0.610313
40 1 0.53525 0.114972 0.610313
41 1 0.21475 0.614972 0.110313
42 1 0.71475 0.614972 0.110313
43 1 0.28525 0.385028 0.610313
44 1 0.78525 0.385028 0.610313
45 1 0.46475 0.385028 0.110313
46 1 0.96475 0.385028 0.110313
47 1 0.0352501 0.614972 0.610313
48 1 0.53525 0.614972 0.610313
49 1 0.194394 0.199781 0.0737477
50 1 0.694394 0.199781 0.0737477
51 1 0.305606 0.800219 0.573748
52 1 0.805606 0.800219 0.573748
53 1 0.444394 0.800219 0.0737477
54 1 0.944394 0.800219 0.0737477
55 1 0.0556058 0.199781 0.573748
56 1 0.555606 0.199781 0.573748
57 1 0.194394 0.699781 0.0737477
58 1 0.694394 0.699781 0.0737477
59 1 0.305606 0.300219 0.573748
60 1 0.805606 0.300219 0.573748
61 1 0.444394 0.300219 0.0737477
62 1 0.944394 0.300219 0.0737477
63 1 0.0556058 0.699781 0.573748
64 1 0.555606 0.699781 0.573748
65 1 0.148484 0.221779 0.0785513
66 1 0.648484 0.221779 0.0785513
67 1 0.351516 0.778221 0.578551
68 1 0.851516 0.778221 0.578551
69 1 0.398484 0.778221 0.0785513
70 1 0.898484 0.778221 0.0785513
71 1 0.101516 0.221779 0.578551
72 1 0.601516 0.221779 0.578551
73 1 0.148484 0.721779 0.0785513
74 1 0.648484 0.721779 0.0785513
75 1 0.351516 0.278221 0.578551
76 1 0.851516 0.278221 0.578551
77 1 0.398484 0.278221 0.0785513
78 1 0.898484 0.278221 0.0785513
79 1 0.101516 0.721779 0.578551
80 1 0.601516 0.721779 0.578551
81 1 0.121672 0.154333 0.118735
82 1 0.621672 0.154333 0.118735
83 1 0.378328 0.845667 0.618735
84 1 0.878328 0.845667 0.618735
85 1 0.371672 0.845667 0.118735
86 1 0.871672 0.845667 0.118735
87 1 0.128328 0.154333 0.618735
88 1 0.628328 0.154333 0.618735
89 1 0.121672 0.654333 0.118735
90 1 0.621672 0.654333 0.118735
91 1 0.378328 0.345667 0.618735
92 1 0.878328 0.345667 0.618735
93 1 0.371672 0.345667 0.118735
94 1 0.871672 0.345667 0.118735
95 1 0.128328 0.654333 0.618735
96 1 0.628328 0.654333 0.618735
97 1 0.11582 0.998067 0.206189
98 1 0.61582 0.998067 0.206189
99 1 0.38418 0.00193263 0.706189
100 1 0.88418 0.00193264 0.706189
101 1 0.36582 0.00193264 0.206189
102 1 0.86582 0.00193262 0.206189
103 1 0.13418 0.998067 0.706189
104 1 0.63418 0.998067 0.706189
105 1 0.11582 0.498067 0.206189
106 1 0.61582 0.498067 0.206189
107 1 0.38418 0.501933 0.706189
108 1 0.88418 0.501933 0.706189
109 1 0.36582 0.501933 0.206189
110 1 0.86582 0.501933 0.206189
111 1 0.13418 0.498067 0.706189
112 1 0.63418 0.498067 0.706189
113 1 0.263763 0.183649 0.844878
114 1 0.763762 0.18365 0.844878
115 1 0.236237 0.816351 0.344878
116 1 0.736238 0.81635 0.344878
117 1 0.0137625 0.816351 0.844878
118 1 0.513762 0.81635 0.844878
119 1 0.486237 0.183649 0.344878
120 1 0.986238 0.18365 0.344878
121 1 0.263763 0.683649 0.844878
122 1 0.763762 0.68365 0.844878
123 1 0.236237 0.316351 0.344878
124 1 0.736238 0.31635 0.344878
125 1 0.0137625 0.316351 0.844878
126 1 0.513762 0.31635 0.844878
127 1 0.486237 0.683649 0.344878
128 1 0.986238 0.68365 0.344878
129 1 0.310178 0.200214 0.848157
130 1 0.810178 0.200214 0.848157
131 1 0.189822 0.799786 0.348157
132 1 0.689822 0.799786 0.348157
133 1 0.0601775 0.799786 0.848157
134 1 0.560178 0.799786 0.848157
135 1 0.439822 0.200214 0.348157
136 1 0.939822 0.200214 0.348157
137 1 0.310178 0.700214 0.848157
138 1 0.810178 0.700214 0.848157
139 1 0.189822 0.299786 0.348157
140 1 0.689822 0.299786 0.348157
141 1 0.0601775 0.299786 0.848157
142 1 0.560178 0.299786 0.848157
143 1 0.439822 0.700214 0.348157
144 1 0.939822 0.700214 0.348157
145 1 0.336398 0.131959 0.889203
146 1 0.836398 0.131959 0.889203
147 1 0.163602 0.868041 0.389203
148 1 0.663602 0.868041 0.389203
149 1 0.0863979 0.868041 0.889203
150 1 0.586398 0.868041 0.889203
151 1 0.413602 0.131959 0.389203
152 1 0.913602 0.131959 0.389203
153 1 0.336398 0.631959 0.889203
154 1 0.836398 0.631959 0.889203
155 1 0.163602 0.368041 0.389203
156 1 0.663602 0.368041 0.389203
157 1 0.0863979 0.368041 0.889203
158 1 0.586398 0.368041 0.889203
159 1 0.413602 0.631959 0.389203
160 1 0.913602 0.631959 0.389203
161 1 0.316245 0.0449514 0.923683
162 1 0.816245 0.0449514 0.923683
163 1 0.183755 0.955049 0.423683
164 1 0.683755 0.955049 0.423683
165 1 0.0662452 0.955049 0.923683
166 1 0.566245 0.955049 0.923683
167 1 0.433755 0.0449514 0.423683
168 1 0.933755 0.0449514 0.423683
169 1 0.316245 0.544951 0.923683
170 1 0.816245 0.544951 0.923683
171 1 0.183755 0.455049 0.423683
172 1 0.683755 0.455049 0.423683
173 1 0.0662452 0.455049 0.923683
174 1 0.566245 0.455049 0.923683
175 1 0.433755 0.544951 0.423683
176 1 0.933755 0.544951 0.423683
177 1 0.270339 0.0242219 0.918547
178 1 0.770339 0.0242219 0.918547
179 1 0.229661 0.975778 0.418547
180 1 0.729661 0.975778 0.418547
181 1 0.0203389 0.975778 0.918547
182 1 0.520339 0.975778 0.918547
183 1 0.479661 0.0242219 0.418547
184 1 0.979661 0.0242219 0.418547
185 1 0.270339 0.524222 0.918547
186 1 0.770339 0.524222 0.918547
187 1 0.229661 0.475778 0.418547
188 1 0.729661 0.475778 0.418547
189 1 0.0203389 0.475778 0.918547
190 1 0.520339 0.475778 0.918547
191 1 0.479661 0.524222 0.418547
192 1 0.979661 0.524222 0.418547
193 1 0.244531 0.0977685 0.881165
194 1 0.744531 0.0977686 0.881165
195 1 0.255469 0.902232 0.381165
196 1 0.755469 0.902231 0.381165
197 1 0.494531 0.902231 0.881165
198 1 0.994531 0.902232 0.881165
199 1 0.00546896 0.0977686 0.381165
200 1 0.505469 0.0977685 0.381165
201 1 0.244531 0.597768 0.881165
202 1 0.744531 0.597769 0.881165
203 1 0.255469 0.402232 0.381165
204 1 0.755469 0.402231 0.381165
205 1 0.494531 0.402231 0.881165
206 1 0.994531 0.402232 0.881165
207 1 0.00546895 0.597769 0.381165
208 1 0.505469 0.597768 0.381165
209 1 0.231523 0.250612 0.799419
210 1 0.731523 0.250612 0.799419
211 1 0.268477 0.749388 0.299419
212 1 0.768477 0.749388 0.299419
213 1 0.481523 0.749388 0.799419
214 1 0.981523 0.749388 0.799419
215 1 0.0184773 0.250612 0.299419
216 1 0.518477 0.250612 0.299419
217 1 0.231523 0.750612 0.799419
218 1 0.731523 0.750612 0.799419
219 1 0.268477 0.249388 0.299419
220 1 0.768477 0.249388 0.299419
221 1 0.481523 0.249388 0.799419
222 1 0.981523 0.249388 0.799419
223 1 0.0184773 0.750612 0.299419
224 1 0.518477 0.750612 0.299419
225 2 0.211914 0.9564 0.192947
226 2 0.711914 0.9564 0.192947
227 2 0.288086 0.0436002 0.692947
228 2 0.788086 0.0436002 0.692947
229 2 0.461914 0.0436002 0.192947
230 2 0.961914 0.0436002 0.192947
231 2 0.0380856 0.9564 0.692947
232 2 0.538086 0.9564 0.692947
233 2 0.211914 0.4564 0.192947
234 2 0.711914 0.4564 0.192947
235 2 0.288086 0.5436 0.692947
236 2 0.788086 0.5436 0.692947
237 2 0.461914 0.5436 0.192947
238 2 0.961914 0.5436 0.192947
239 2 0.0380856 0.4564 0.692947
240 2 0.538086 0.4564 0.692947
241 2 0.222962 0.272305 0.0267724
242 2 0.722962 0.272305 0.0267724
243 2 0.277038 0.727695 0.526772
244 2 0.777038 0.727695 0.526772
245 2 0.472962 0.727695 0.0267724
246 2 0.972962 0.727695 0.0267724
247 2 0.0270378 0.272305 0.526772
248 2 0.527038 0.272305 0.526772
249 2 0.222962 0.772305 0.0267724
250 2 0.722962 0.772305 0.0267724
251 2 0.277038 0.227695 0.526772
252 2 0.777038 0.227695 0.526772
253 2 0.472962 0.227695 0.0267724
254 2 0.972962 0.227695 0.0267724
255 2 0.0270378 0.772305 0.526772
256 2 0.527038 0.772305 0.526772
257 2 0.070045 0.175798 0.122909
258 2 0.570045 0.175798 0.122909
259 2 0.429955 0.824202 0.622909
260 2 0.929955 0.824202 0.622909
261 2 0.320045 0.824202 0.122909
262 2 0.820045 0.824202 0.122909
263 2 0.179955 0.175798 0.622909
264 2 0.679955 0.175798 0.622909
265 2 0.070045 0.675798 0.122909
266 2 0.570045 0.675798 0.122909
267 2 0.429955 0.324202 0.622909
268 2 0.929955 0.324202 0.622909
269 2 0.320045 0.324202 0.122909
270 2 0.820045 0.324202 0.122909
271 2 0.179955 0.675798 0.622909
272 2 0.679955 0.675798 0.622909
273 2 0.335213 0.290757 0.807509
274 2 0.835213 0.290757 0.807509
275 2 0.164787 0.709243 0.307509
276 2 0.664787 0.709243 0.307509
277 2 0.0852125 0.709243 0.807509
278 2 0.585213 0.709243 0.807509
279 2 0.414787 0.290757 0.307509
280 2 0.914787 0.290757 0.307509
281 2 0.335213 0.790757 0.807509
282 2 0.835213 0.790757 0.807509
283 2 0.164787 0.209243 0.307509
284 2 0.664787 0.209243 0.307509
285 2 0.0852125 0.209243 0.807509
286 2 0.585213 0.209243 0.807509
287 2 0.414787 0.790757 0.307509
288 2 0.914787 0.790757 0.307509
289 2 0.34538 0.969026 0.968275
290 2 0.84538 0.969026 0.968275
291 2 0.15462 0.0309735 0.468275
292 2 0.65462 0.0309736 0.468275
293 2 0.0953802 0.0309735 0.968275
294 2 0.59538 0.0309736 0.968275
295 2 0.40462 0.969026 0.468275
296 2 0.90462 0.969026 0.468275
297 2 0.34538 0.469026 0.968275
298 2 0.84538 0.469026 0.968275
299 2 0.15462 0.530974 0.468275
300 2 0.65462 0.530974 0.468275
301 2 0.0953801 0.530974 0.968275
302 2 0.59538 0.530974 0.968275
303 2 0.40462 0.469026 0.468275
304 2 0.90462 0.469026 0.468275
305 2 0.192847 0.0767065 0.88023
306 2 0.692847 0.0767065 0.88023
307 2 0.307153 0.923293 0.38023
308 2 0.807153 0.923294 0.38023
309 2 0.442847 0.923294 0.88023
310 2 0.942847 0.923293 0.88023
311 2 0.0571535 0.0767064 0.38023
312 2 0.557153 0.0767065 0.38023
313 2 0.192847 0.576707 0.88023
314 2 0.692847 0.576706 0.88023
315 2 0.307153 0.423293 0.38023
316 2 0.807153 0.423294 0.38023
317 2 0.442847 0.423294 0.88023
318 2 0.942847 0.423293 0.88023
319 2 0.0571535 0.576706 0.38023
320 2 0.557153 0.576707 0.38023
321 3 0.194221 0.859022 0.196281
322 3 0.694221 0.859022 0.196281
323 3 0.305779 0.140978 0.696281
324 3 0.805779 0.140978 0.696281
325 3 0.444221 0.140978 0.196281
326 3 0.944221 0.140978 0.196281
327 3 0.0557785 0.859022 0.696281
328 3 0.555779 0.859022 0.696281
329 3 0.194221 0.359022 0.196281
330 3 0.694221 0.359022 0.196281
331 3 0.305779 0.640978 0.696281
332 3 0.805779 0.640978 0.696281
333 3 0.444221 0.640978 0.196281
334 3 0.944221 0.640978 0.196281
335 3 0.0557785 0.359022 0.696281
336 3 0.555779 0.359022 0.696281
337 3 0.249009 0.981036 0.222975
338 3 0.749009 0.981036 0.222975
339 3 0.250991 0.0189642 0.722975
340 3 0.750991 0.0189642 0.722975
341 3 0.499009 0.0189642 0.222975
342 3 0.999009 0.0189642 0.222975
343 3 0.000990628 0.981036 0.722975
344 3 0.500991 0.981036 0.722975
345 3 0.249009 0.481036 0.222975
346 3 0.749009 0.481036 0.222975
347 3 0.250991 0.518964 0.722975
348 3 0.750991 0.518964 0.722975
349 3 0.499009 0.518964 0.222975
350 3 0.999009 0.518964 0.222975
351 3 0.00099063 0.481036 0.722975
352 3 0.500991 0.481036 0.722975
353 3 0.260811 0.233443 0.00470437
354 3 0.760811 0.233443 0.00470436
355 3 0.239189 0.766557 0.504704
356 3 0.739189 0.766557 0.504704
357 3 0.0108112 0.766557 0.00470437
358 3 0.510811 0.766557 0.00470436
359 3 0.489189 0.233443 0.504704
360 3 0.989189 0.233443 0.504704
361 3 0.260811 0.733443 0.00470438
362 3 0.760811 0.733443 0.00470436
363 3 0.239189 0.266557 0.504704
364 3 0.739189 0.266557 0.504704
365 3 0.0108112 0.266557 0.00470438
366 3 0.510811 0.266557 0.00470436
367 3 0.489189 0.733443 0.504704
368 3 0.989189 0.733443 0.504704
369 3 0.208567 0.370331 0.0108336
370 3 0.708567 0.370331 0.0108336
371 3 0.291433 0.629669 0.510834
372 3 0.791433 0.629669 0.510834
373 3 0.458567 0.629669 0.0108336
374 3 0.958567 0.629669 0.0108336
375 3 0.0414333 0.370331 0.510834
376 3 0.541433 0.370331 0.510834
377 3 0.208567 0.870331 0.0108336
378 3 0.708567 0.870331 0.0108336
379 3 0.291433 0.129669 0.510834
380 3 0.791433 0.129669 0.510834
381 3 0.458567 0.129669 0.0108336
382 3 0.958567 0.129669 0.0108336
383 3 0.0414333 0.870331 0.510834
384 3 0.541433 0.870331 0.510834
385 3 0.055941 0.275251 0.134171
386 3 0.555941 0.275251 0.134171
387 3 0.444059 0.724749 0.634171
388 3 0.944059 0.724749 0.634171
389 3 0.305941 0.724749 0.134171
390 3 0.805941 0.724749 0.134171
391 3 0.194059 0.275251 0.634171
392 3 0.694059 0.275251 0.634171
393 3 0.055941 0.775251 0.134171
394 3 0.555941 0.775251 0.134171
395 3 0.444059 0.224749 0.634171
396 3 0.944059 0.224749 0.634171
397 3 0.305941 0.224749 0.134171
398 3 0.805941 0.224749 0.134171
399 3 0.194059 0.775251 0.634171
400 3 0.694059 0.775251 0.634171
401 3 0.0430396 0.0941341 0.111666
402 3 0.54304 0.0941341 0.111666
403 3 0.45696 0.905866 0.611666
404 3 0.95696 0.905866 0.611666
405 3 0.29304 0.905866 0.111666
406 3 0.79304 0.905866 0.111666
407 3 0.20696 0.0941341 0.611666
408 3 0.70696 0.0941341 0.611666
409 3 0.0430396 0.594134 0.111666
410 3 0.54304 0.594134 0.111666
411 3 0.45696 0.405866 0.611666
412 3 0.95696 0.405866 0.611666
413 3 0.29304 0.405866 0.111666
414 3 0.79304 0.405866 0.111666
415 3 0.20696 0.594134 0.611666
416 3 0.70696 0.594134 0.611666
417 3 0.317605 0.387974 0.80277
418 3 0.817605 0.387974 0.80277
419 3 0.182395 0.612026 0.30277
420 3 0.682395 0.612026 0.30277
421 3 0.0676051 0.612026 0.80277
422 3 0.567605 0.612026 0.80277
423 3 0.432395 0.387974 0.30277
424 3 0.932395 0.387974 0.30277
425 3 0.317605 0.887974 0.80277
426 3 0.817605 0.887974 0.80277
427 3 0.182395 0.112026 0.30277
428 3 0.682395 0.112026 0.30277
429 3 0.0676051 0.112026 0.80277
430 3 0.567605 0.112026 0.80277
431 3 0.432395 0.887974 0.30277
432 3 0.932395 0.887974 0.30277
433 3 0.373217 0.265653 0.780083
434 3 0.873217 0.265653 0.780083
435 3 0.126783 0.734347 0.280083
436 3 0.626783 0.734347 0.280083
437 3 0.123217 0.734347 0.780083
438 3 0.623217 0.734347 0.780083
439 3 0.376783 0.265653 0.280083
440 3 0.876783 0.265653 0.280083
441 3 0.373217 0.765653 0.780083
442 3 0.873217 0.765653 0.780083
443 3 0.126783 0.234347 0.280083
444 3 0.626783 0.234347 0.280083
445 3 0.123217 0.234347 0.780083
446 3 0.623217 0.234347 0.780083
447 3 0.376783 0.765653 0.280083
448 3 0.876783 0.765653 0.280083
449 3 0.379848 0.0111567 0.998823
450 3 0.879848 0.0111567 0.998823
451 3 0.120152 0.988843 0.498823
452 3 0.620152 0.988843 0.498823
453 3 0.129848 0.988843 0.998823
454 3 0.629848 0.988843 0.998823
455 3 0.370152 0.0111568 0.498823
456 3 0.870152 0.0111567 0.498823
457 3 0.379848 0.511157 0.998823
458 3 0.879848 0.511157 0.998823
459 3 0.120152 0.488843 0.498823
460 3 0.620152 0.488843 0.498823
461 3 0.129848 0.488843 0.998823
462 3 0.629848 0.488843 0.998823
463 3 0.370152 0.511157 0.498823
464 3 0.870152 0.511157 0.498823
465 3 0.333705 0.866217 0.974961
466 3 0.833705 0.866217 0.974961
467 3 0.166295 0.133783 0.474961
468 3 0.666295 0.133783 0.474961
469 3 0.083705 0.133783 0.974961
470 3 0.583705 0.133783 0.974961
471 3 0.416295 0.866217 0.474961
472 3 0.916295 0.866217 0.474961
473 3 0.333705 0.366217 0.974961
474 3 0.833705 0.366217 0.974961
475 3 0.166295 0.633783 0.474961
476 3 0.666295 0.633783 0.474961
477 3 0.083705 0.633783 0.974961
478 3 0.583705 0.633783 0.974961
479 3 0.416295 0.366217 0.474961
480 3 0.916295 0.366217 0.474961
481 3 0.178235 0.982077 0.859984
482 3 0.678235 0.982078 0.859984
483 3 0.321765 0.0179226 0.359984
484 3 0.821765 0.0179224 0.359984
485 3 0.428235 0.0179224 0.859984
486 3 0.928235 0.0179226 0.859984
487 3 0.0717648 0.982078 0.359984
488 3 0.571765 0.982077 0.359984
489 3 0.178235 0.482077 0.859984
490 3 0.678235 0.482078 0.859984
491 3 0.321765 0.517923 0.359984
492 3 0.821765 0.517922 0.359984
493 3 0.428235 0.517922 0.859984
494 3 0.928235 0.517923 0.859984
495 3 0.0717648 0.482078 0.359984
496 3 0.571765 0.482077 0.359984
497 3 0.167007 0.155398 0.90047
498 3 0.667007 0.155398 0.90047
499 3 0.332993 0.844602 0.40047
500 3 0.832993 0.844602 0.40047
501 3 0.417007 0.844602 0.90047
502 3 0.917007 0.844602 0.90047
503 3 0.0829925 0.155398 0.40047
504 3 0.582993 0.155398 0.40047
505 3 0.167007 0.655398 0.90047
506 3 0.667007 0.655398 0.90047
507 3 0.332993 0.344602 0.40047
508 3 0.832993 0.344602 0.40047
509 3 0.417007 0.344602 0.90047
510 3 0.917007 0.344602 0.90047
511 3 0.0829925 0.655398 0.40047
512 3 0.582993 0.655398 0.40047
513 4 0.137003 0.970527 0.247357
514 4 0.637003 0.970527 0.247357
515 4 0.362997 0.0294727 0.747357
516 4 0.862997 0.0294727 0.747357
517 4 0.387003 0.0294727 0.247357
518 4 0.887003 0.0294727 0.247357
519 4 0.112997 0.970527 0.747357
520 4 0.612997 0.970527 0.747357
521 4 0.137003 0.470527 0.247357
522 4 0.637003 0.470527 0.247357
523 4 0.362997 0.529473 0.747357
524 4 0.862997 0.529473 0.747357
525 4 0.387003 0.529473 0.247357
526 4 0.887003 0.529473 0.247357
527 4 0.112997 0.470527 0.747357
528 4 0.612997 0.470527 0.747357
529 4 0.102856 0.924622 0.181362
530 4 0.602856 0.924622 0.181362
531 4 0.397144 0.075378 0.681362
532 4 0.897144 0.075378 0.681362
533 4 0.352856 0.075378 0.181362
534 4 0.852856 0.075378 0.181362
535 4 0.147144 0.924622 0.681362
536 4 0.647144 0.924622 0.681362
537 4 0.102856 0.424622 0.181362
538 4 0.602856 0.424622 0.181362
539 4 0.397144 0.575378 0.681362
540 4 0.897144 0.575378 0.681362
541 4 0.352856 0.575378 0.181362
542 4 0.852856 0.575378 0.181362
543 4 0.147144 0.424622 0.681362
544 4 0.647144 0.424622 0.681362
545 4 0.0881751 0.0442613 0.227819
546 4 0.588175 0.0442613 0.227819
547 4 0.411825 0.955739 0.727819
548 4 0.911825 0.955739 0.727819
549 4 0.338175 0.955739 0.227819
550 4 0.838175 0.955739 0.227819
551 4 0.161825 0.0442613 0.727819
552 4 0.661825 0.0442613 0.727819
553 4 0.0881751 0.544261 0.227819
554 4 0.588175 0.544261 0.227819
555 4 0.411825 0.455739 0.727819
556 4 0.911825 0.455739 0.727819
557 4 0.338175 0.455739 0.227819
558 4 0.838175 0.455739 0.227819
559 4 0.161825 0.544261 0.727819
560 4 0.661825 0.544261 0.727819
561 4 0.250317 0.0998581 0.107582
562 4 0.750317 0.0998581 0.107582
563 4 0.249683 0.900142 0.607582
564 4 0.749683 0.900142 0.607582
565 4 0.500317 0.900142 0.107582
566 4 0.000316646 0.900142 0.107582
567 4 0.999683 0.0998581 0.607582
568 4 0.499683 0.0998581 0.607582
569 4 0.250317 0.599858 0.107582
570 4 0.750317 0.599858 0.107582
571 4 0.249683 0.400142 0.607582
572 4 0.749683 0.400142 0.607582
573 4 0.500317 0.400142 0.107582
574 4 0.000316638 0.400142 0.107582
575 4 0.999683 0.599858 0.607582
576 4 0.499683 0.599858 0.607582
577 4 0.133679 0.288125 0.0501751
578 4 0.633679 0.288125 0.0501751
579 4 0.366321 0.711875 0.550175
580 4 0.866321 0.711875 0.550175
581 4 0.383679 0.711875 0.0501751
582 4 0.883679 0.711875 0.0501751
583 4 0.116321 0.288125 0.550175
584 4 0.616321 0.288125 0.550175
585 4 0.133679 0.788125 0.0501751
586 4 0.633679 0.788125 0.0501751
587 4 0.366321 0.211875 0.550175
588 4 0.866321 0.211875 0.550175
589 4 0.383679 0.211875 0.0501751
590 4 0.883679 0.211875 0.0501751
591 4 0.116321 0.788125 0.550175
592 4 0.616321 0.788125 0.550175
593 4 0.248284 0.283115 0.755071
594 4 0.748284 0.283115 0.755071
595 4 0.251716 0.716885 0.255071
596 4 0.751716 0.716885 0.255071
597 4 0.498284 0.716885 0.755071
598 4 0.998284 0.716885 0.755071
599 4 0.00171604 0.283115 0.255071
600 4 0.501716 0.283115 0.255071
601 4 0.248284 0.783115 0.755071
602 4 0.748284 0.783115 0.755071
603 4 0.251716 0.216885 0.255071
604 4 0.751716 0.216885 0.255071
605 4 0.498284 0.216885 0.755071
606 4 0.998284 0.216885 0.755071
607 4 0.00171604 0.783115 0.255071
608 4 0.501716 0.783115 0.255071
609 4 0.203719 0.199599 0.78213
610 4 0.703719 0.199599 0.78213
611 4 0.296281 0.800401 0.28213
612 4 0.796281 0.800401 0.28213
613 4 0.453719 0.800401 0.78213
614 4 0.953719 0.800401 0.78213
615 4 0.0462805 0.199599 0.28213
616 4 0.546281 0.199599 0.28213
617 4 0.203719 0.699599 0.78213
618 4 0.703719 0.699599 0.78213
619 4 0.296281 0.300401 0.28213
620 4 0.796281 0.300401 0.28213
621 4 0.453719 0.300401 0.78213
622 4 0.953719 0.300401 0.78213
623 4 0.0462805 0.699599 0.28213
624 4 0.546281 0.699599 0.28213
625 4 0.215956 0.319584 0.825867
626 4 0.715956 0.319584 0.825867
627 4 0.284044 0.680416 0.325867
628 4 0.784044 0.680416 0.325867
629 4 0.465956 0.680416 0.825867
630 4 0.965956 0.680416 0.825867
631 4 0.0340436 0.319584 0.325867
632 4 0.534044 0.319584 0.325867
633 4 0.215956 0.819584 0.825867
634 4 0.715956 0.819584 0.825867
635 4 0.284044 0.180416 0.325867
636 4 0.784044 0.180416 0.325867
637 4 0.465956 0.180416 0.825867
638 4 0.965956 0.180416 0.825867
639 4 0.0340436 0.819584 0.325867
640 4 0.534044 0.819584 0.325867
641 4 0.371979 0.145617 0.893291
642 4 0.871979 0.145617 0.893291
643 4 0.128021 0.854383 0.393291
644 4 0.628021 0.854383 0.393291
645 4 0.121979 0.854383 0.893291
646 4 0.621979 0.854383 0.893291
647 4 0.378021 0.145617 0.393291
648 4 0.878021 0.145617 0.393291
649 4 0.371979 0.645617 0.893291
650 4 0.871979 0.645617 0.893291
651 4 0.128021 0.354383 0.393291
652 4 0.628021 0.354383 0.393291
653 4 0.121979 0.354383 0.893291
654 4 0.621979 0.354383 0.893291
655 4 0.378021 0.645617 0.393291
656 4 0.878021 0.645617 0.393291
657 4 0.254691 0.955911 0.944492
658 4 0.754691 0.955911 0.944492
659 4 0.245309 0.0440889 0.444492
660 4 0.745309 0.0440891 0.444492
661 4 0.0046912 0.0440889 0.944492
662 4 0.504691 0.0440891 0.944492
663 4 0.495309 0.955911 0.444492
664 4 0.995309 0.955911 0.444492
665 4 0.254691 0.455911 0.944492
666 4 0.754691 0.455911 0.944492
667 4 0.245309 0.544089 0.444492
668 4 0.745309 0.544089 0.444492
669 4 0.00469119 0.544089 0.944492
670 4 0.504691 0.544089 0.944492
671 4 0.495309 0.455911 0.444492
672 4 0.995309 0.455911 0.444492
ITEM: TIMESTEP
1000
ITEM: NUMBER OF ATOMS
672
ITEM: BOX BOUNDS xy xz yz pp pp pp
-2.7290213652968953e+00 3.2627540008600086e+01 -5.6566345226576747e-02
-2.2411611968108047e-01 1.2358976495354742e+01 -2.6915362472508038e-02
-4.1073849631513326e-01 2.0427738694715117e+01 -1.9139906626343683e-02
ITEM: ATOMS id type xs ys zs
1 1 0.138308 0.0739732 0.140008
2 1 0.639913 0.0700699 0.149308
3 1 0.345882 0.928118 0.66817
4 1 0.846871 0.929478 0.660463
5 1 0.404794 0.920271 0.153926
6 1 0.900614 0.943455 0.17478
7 1 0.110083 0.081348 0.654576
8 1 0.595959 0.0762857 0.672086
9 1 0.163396 0.539582 0.167773
10 1 0.638281 0.591056 0.155417
11 1 0.352981 0.395733 0.668513
12 1 0.843958 0.441959 0.668334
13 1 0.403789 0.421096 0.155295
14 1 0.895913 0.402069 0.161074
15 1 0.0986723 0.55595 0.652266
16 1 0.611033 0.570753 0.643816
17 1 0.175599 0.0446112 0.12708
18 1 0.67927 0.0442463 0.140958
19 1 0.306246 0.94168 0.657442
20 1 0.808119 0.9371 0.641333
21 1 0.443016 0.938216 0.14479
22 1 0.938077 0.982966 0.163167
23 1 0.0704766 0.0655019 0.654485
24 1 0.556047 0.0668938 0.661212
25 1 0.202831 0.537981 0.155022
26 1 0.67515 0.551837 0.148773
27 1 0.316245 0.427286 0.648747
28 1 0.804906 0.468859 0.658059
29 1 0.439997 0.457378 0.140388
30 1 0.929078 0.449456 0.135049
31 1 0.0614159 0.518646 0.647132
32 1 0.573019 0.542115 0.638475
33 1 0.196834 0.110853 0.0861392
34 1 0.699502 0.104084 0.095415
35 1 0.285499 0.877701 0.61522
36 1 0.793646 0.859186 0.598507
37 1 0.461076 0.869831 0.100437
38 1 0.961018 0.935652 0.115159
39 1 0.0495902 0.115568 0.606388
40 1 0.538958 0.132441 0.613664
41 1 0.218055 0.612983 0.114257
42 1 0.701794 0.613452 0.11416
43 1 0.299189 0.361329 0.605075
44 1 0.785533 0.405814 0.615496
45 1 0.46194 0.399804 0.0966786
46 1 0.952461 0.383702 0.0975729
47 1 0.0369952 0.579185 0.6074
48 1 0.549143 0.608088 0.601587
49 1 0.182712 0.208086 0.0636188
50 1 0.683287 0.188024 0.0599907
51 1 0.30463 0.79729 0.579839
52 1 0.818696 0.783321 0.573815
53 1 0.442886 0.782194 0.0744284
54 1 0.944278 0.853365 0.0765057
55 1 0.0669327 0.182668 0.559033
56 1 0.560943 0.203883 0.577092
57 1 0.195338 0.689917 0.0816074
58 1 0.691983 0.710299 0.0849728
59 1 0.318902 0.279139 0.571117
60 1 0.803511 0.326359 0.57963
61 1 0.448206 0.30633 0.0664666
62 1 0.939696 0.283128 0.0734615
63 1 0.0480394 0.674967 0.578606
64 1 0.563896 0.695697 0.567401
65 1 0.145859 0.241823 0.081374
66 1 0.644416 0.211058 0.0691147
67 1 0.342146 0.775891 0.595242
68 1 0.856194 0.772394 0.595738
69 1 0.403375 0.767186 0.0823479
70 1 0.906774 0.818707 0.0854871
71 1 0.106112 0.198397 0.55766
72 1 0.600848 0.206505 0.585025
73 1 0.156161 0.677693 0.0840317
74 1 0.653026 0.744949 0.0862748
75 1 0.355185 0.250961 0.594014
76 1 0.841332 0.298808 0.592184
77 1 0.409511 0.277351 0.07987
78 1 0.904177 0.245881 0.0935544
79 1 0.0848023 0.712609 0.590031
80 1 0.600865 0.726775 0.576656
81 1 0.121899 0.168333 0.115537
82 1 0.623178 0.150888 0.113329
83 1 0.364159 0.837535 0.639357
84 1 0.870272 0.847779 0.63978
85 1 0.383091 0.835619 0.123463
86 1 0.885149 0.864063 0.135285
87 1 0.127427 0.15024 0.608967
88 1 0.616961 0.143411 0.63277
89 1 0.140425 0.607951 0.130688
90 1 0.62681 0.683664 0.121077
91 1 0.372138 0.309247 0.644991
92 1 0.862582 0.360704 0.634848
93 1 0.387322 0.332644 0.122164
94 1 0.883483 0.303574 0.137407
95 1 0.111741 0.650403 0.620123
96 1 0.62492 0.664223 0.615232
97 1 0.116817 0.00124368 0.188173
98 1 0.615193 0.0104619 0.20065
99 1 0.367907 0.00241676 0.713994
100 1 0.863225 0.010683 0.711477
101 1 0.387761 0.994005 0.206562
102 1 0.877537 0.989737 0.232236
103 1 0.134806 0.0335219 0.708346
104 1 0.618433 0.0270659 0.72957
105 1 0.145377 0.469292 0.221063
106 1 0.608121 0.537736 0.20083
107 1 0.37159 0.461872 0.723952
108 1 0.867742 0.513273 0.714298
109 1 0.37928 0.477806 0.20786
110 1 0.869755 0.463583 0.208748
111 1 0.126434 0.493178 0.696437
112 1 0.641097 0.508997 0.684411
113 1 0.26936 0.164148 0.854836
114 1 0.76769 0.176783 0.850406
115 1 0.213283 0.834708 0.320572
116 1 0.717164 0.790649 0.326575
117 1 0.0270185 0.801021 0.828672
118 1 0.529682 0.784191 0.836947
119 1 0.472034 0.202629 0.335193
120 1 0.981271 0.202953 0.350151
121 1 0.272362 0.668666 0.837697
122 1 0.767725 0.701906 0.843052
123 1 0.243771 0.352571 0.343566
124 1 0.722803 0.291846 0.329037
125 1 0.0184058 0.303521 0.854287
126 1 0.515125 0.325695 0.85785
127 1 0.482092 0.713684 0.351845
128 1 0.99872 0.692972 0.337267
129 1 0.308547 0.187557 0.861069
130 1 0.806244 0.199578 0.8558
131 1 0.173571 0.829991 0.329311
132 1 0.678802 0.790068 0.34091
133 1 0.0657358 0.797262 0.844844
134 1 0.568813 0.769003 0.846008
135 1 0.432498 0.198613 0.344321
136 1 0.942119 0.225109 0.357962
137 1 0.311619 0.670263 0.847717
138 1 0.806858 0.72826 0.846324
139 1 0.204958 0.327414 0.346075
140 1 0.684794 0.272751 0.347555
141 1 0.058542 0.293672 0.863478
142 1 0.554053 0.29513 0.865225
143 1 0.443047 0.731241 0.35731
144 1 0.96153 0.720429 0.355967
145 1 0.331875 0.123006 0.896656
146 1 0.828203 0.121761 0.889018
147 1 0.15637 0.906976 0.369922
148 1 0.663596 0.867364 0.383718
149 1 0.0815619 0.867911 0.89197
150 1 0.587167 0.838512 0.890488
151 1 0.413873 0.122028 0.382971
152 1 0.921286 0.16098 0.404416
153 1 0.328019 0.593726 0.891106
154 1 0.828231 0.670268 0.89325
155 1 0.181384 0.398582 0.382116
156 1 0.663703 0.33162 0.39234
157 1 0.0756648 0.377377 0.897011
158 1 0.578901 0.365947 0.896225
159 1 0.423868 0.667586 0.403595
160 1 0.940114 0.648751 0.390374
161 1 0.317072 0.0256636 0.921497
162 1 0.810344 0.0323009 0.914681
163 1 0.177702 0.987292 0.400651
164 1 0.686903 0.949667 0.407099
165 1 0.0603556 0.944765 0.92337
166 1 0.567024 0.917659 0.923802
167 1 0.437105 0.0502634 0.413863
168 1 0.936699 0.0738148 0.435606
169 1 0.306072 0.535581 0.933454
170 1 0.813404 0.599779 0.938393
171 1 0.196116 0.488496 0.412697
172 1 0.682234 0.416962 0.425435
173 1 0.0575038 0.468048 0.922729
174 1 0.564827 0.460324 0.924762
175 1 0.441761 0.588862 0.439276
176 1 0.955073 0.551268 0.413352
177 1 0.279024 0.995302 0.913099
178 1 0.771997 0.0160857 0.907209
179 1 0.217192 0.983307 0.396933
180 1 0.725498 0.953645 0.390688
181 1 0.0209807 0.948445 0.905608
182 1 0.527415 0.925034 0.913484
183 1 0.477104 0.052542 0.404677
184 1 0.976175 0.0529411 0.4264
185 1 0.266239 0.539638 0.920445
186 1 0.773594 0.578337 0.932786
187 1 0.235603 0.50931 0.409047
188 1 0.719181 0.441354 0.4062
189 1 0.018008 0.471635 0.915212
190 1 0.525457 0.478828 0.923665
191 1 0.481394 0.580498 0.433624
192 1 0.993883 0.533236 0.403148
193 1 0.254119 0.0633245 0.87571
194 1 0.747806 0.0908347 0.87658
195 1 0.234862 0.911371 0.354578
196 1 0.741073 0.869104 0.35687
197 1 0.508005 0.861045 0.868474
198 1 0.00496867 0.881523 0.860436
199 1 0.996554 0.114275 0.383082
200 1 0.495665 0.127545 0.36693
201 1 0.248586 0.602815 0.875793
202 1 0.751629 0.627767 0.884397
203 1 0.259636 0.441155 0.3763
204 1 0.740621 0.37555 0.364725
205 1 0.500653 0.416639 0.884434
206 1 0.997852 0.392078 0.879004
207 1 0.0148878 0.600885 0.362722
208 1 0.502571 0.639188 0.388046
209 1 0.242503 0.24821 0.823318
210 1 0.742909 0.253657 0.80834
211 1 0.23659 0.760161 0.274906
212 1 0.73014 0.700671 0.28087
213 1 0.509918 0.69512 0.796747
214 1 0.0108413 0.72259 0.776423
215 1 0.00660999 0.263383 0.300149
216 1 0.491927 0.286468 0.293074
217 1 0.251291 0.733162 0.783996
218 1 0.740918 0.750974 0.791228
219 1 0.271648 0.277633 0.305649
220 1 0.743595 0.227675 0.276664
221 1 0.487016 0.260611 0.815406
222 1 0.994625 0.2226 0.814715
223 1 0.0232599 0.755473 0.287525