LAMMPS data file via write_data, version 15 Apr 2020, timestep = 80000

672 atoms
4 atom types

1.5744130633174791e+00 2.8407587287700295e+01 xlo xhi
-1.3334882445124627e+00 1.3487488526812410e+01 ylo yhi
-1.1353370913083491e+00 2.1152337289708484e+01 zlo zhi
2.2818617993877938e-02 -2.7827577628168859e-01 -6.8546646075714313e-02 xy xz yz

Masses

1 12.0107
2 14.0067
3 15.9994
4 1.00794

Atoms # full

1 1 1 3.0528223165429823e-02 5.8233233560816871e+00 6.1521382332663821e-01 2.2450691770181654e+00 0 0 0
2 1 1 3.4906294910378180e-02 1.9084146998552431e+01 4.6017863599707942e-01 2.3274695333243174e+00 0 0 0
3 1 1 3.3342365484257543e-02 1.0422061393234172e+01 1.2015578833689926e+01 1.3832682059625037e+01 0 0 0
4 1 1 3.9561522545211766e-02 2.4124197504897456e+01 1.1651172293078172e+01 1.3730313068919477e+01 0 0 0
5 1 1 3.1700123439927660e-02 1.2884286122228103e+01 1.1082005074191278e+01 2.0125807561800086e+00 0 0 0
6 1 1 4.5715287543367032e-02 2.5465181852290307e+01 1.1721547247985212e+01 1.9597409681832261e+00 0 0 0
7 1 1 3.6920807961172288e-02 4.3779284721947800e+00 1.1358100069532981e+00 1.3353072024602511e+01 0 0 0
8 1 1 2.6153304047133476e-02 1.7042620504311643e+01 8.5068124342429075e-01 1.3618473161118068e+01 0 0 0
9 1 1 5.3987695689219808e-02 5.8774589911931310e+00 7.6428079619269269e+00 1.8571859740371406e+00 0 0 0
10 1 1 2.8744231268621422e-02 1.9350211372870174e+01 7.9830354337179337e+00 2.3409712432789012e+00 0 0 0
11 1 1 4.1266988154019552e-02 1.0556213475560332e+01 4.4140449213286308e+00 1.3729631449445197e+01 0 0 0
12 1 1 5.2533850790503399e-02 2.3935292097908619e+01 3.9915462296349338e+00 1.3313014925277002e+01 0 0 0
13 1 1 4.9076893442189184e-02 1.2492605916331756e+01 4.1419799049476751e+00 2.6565896634154922e+00 0 0 0
14 1 1 3.0659631331870083e-02 2.5653820520199538e+01 3.9887746536596698e+00 2.2297446290150371e+00 0 0 0
15 1 1 3.5771777060139079e-02 3.4307679321941675e+00 7.8966139276179970e+00 1.2997443523631929e+01 0 0 0
16 1 1 4.8197644112878454e-02 1.7600120019819190e+01 7.9232873806361166e+00 1.3316138146069923e+01 0 0 0
17 1 1 1.1719882026979704e-01 6.9151721960110200e+00 -1.6678238844173476e-01 1.7627951192829117e+00 0 0 0
18 1 1 1.1875206883464480e-01 2.0209300111912835e+01 -1.6692985739797006e-01 1.7429984105372842e+00 0 0 0
19 1 1 1.1955900143194824e-01 9.4259504005948180e+00 1.2760353830987732e+01 1.3145263287232115e+01 0 0 0
20 1 1 1.2556579233249440e-01 2.3107819443055149e+01 1.2464247804092492e+01 1.3105881229192152e+01 0 0 0
21 1 1 1.2367490782278170e-01 1.3976650382569300e+01 1.1813490282666692e+01 1.4611206304209685e+00 0 0 0
22 1 1 1.1849945699292729e-01 2.6585341002797694e+01 1.2473774266795422e+01 1.4714289184159854e+00 0 0 0
23 1 1 1.0055873894205719e-01 3.1442545251128724e+00 4.2162589361764136e-01 1.3174817475055811e+01 0 0 0
24 1 1 1.1666906842210661e-01 1.5865481961577100e+01 2.8224438716855649e-01 1.3082565327859985e+01 0 0 0
25 1 1 1.1616111263785880e-01 7.1148588643489932e+00 6.9725269500592617e+00 1.7724524771295846e+00 0 0 0
26 1 1 1.3461342963947637e-01 2.0485727757264947e+01 7.2629121425149830e+00 1.8611211962208123e+00 0 0 0
27 1 1 1.2187363013195257e-01 9.4684405762021235e+00 4.9810963965722026e+00 1.3106622016968997e+01 0 0 0
28 1 1 1.2363063482141178e-01 2.2847203552853529e+01 4.7123887338558061e+00 1.2789510246669339e+01 0 0 0
29 1 1 1.1438231349836418e-01 1.3654409013667888e+01 4.8934842116134014e+00 2.2771389969609408e+00 0 0 0
30 1 1 1.1234834871061049e-01 2.6610426580826072e+01 4.9485760472732432e+00 1.8906550725913260e+00 0 0 0
31 1 1 1.0653023652334058e-01 2.3767404237799705e+00 7.0528366575572683e+00 1.2519876581430340e+01 0 0 0
32 1 1 1.2011936216488228e-01 1.6325624392966805e+01 7.3801988218022316e+00 1.3049448215466384e+01 0 0 0
33 1 1 -1.2055985372372841e-01 7.7936150373796664e+00 4.4939885455991169e-01 8.3080604260520907e-01 0 0 0
34 1 1 -1.2801229656169072e-01 2.0968295068233314e+01 5.8111210945498071e-01 8.1734704113068535e-01 0 0 0
35 1 1 -1.1866161688385407e-01 8.5815251759142424e+00 1.2146155631785639e+01 1.2215199827136541e+01 0 0 0
36 1 1 -1.1796505844457057e-01 2.2365940054214050e+01 1.1880076402251815e+01 1.2071605694147639e+01 0 0 0
37 1 1 -1.0326402199484465e-01 1.4525604921906108e+01 1.1251127418954516e+01 2.9731740177573163e-01 0 0 0
38 1 1 -1.0372834858698973e-01 2.7319537631916489e+01 1.1872777185522276e+01 4.7040067845806322e-01 0 0 0
39 1 1 -1.1951625296499185e-01 2.4753822169714801e+00 7.0333713879964499e-01 1.1960068470118877e+01 0 0 0
40 1 1 -1.2217068968619621e-01 1.5066042974003880e+01 1.0778105419874744e+00 1.2250866180617516e+01 0 0 0
41 1 1 -1.1918234202368745e-01 7.9613206209200946e+00 7.4703385145338483e+00 7.6474691940825590e-01 0 0 0
42 1 1 -1.1456914130612952e-01 2.1148307733437974e+01 7.7338042718094666e+00 7.2531621867732632e-01 0 0 0
43 1 1 -1.2188233296688192e-01 8.7913132724020393e+00 4.2703312231048436e+00 1.2062006388380194e+01 0 0 0
44 1 1 -1.2104033429069684e-01 2.2030932256503501e+01 4.1308433343457063e+00 1.1806064465674396e+01 0 0 0
45 1 1 -1.2713089863234694e-01 1.4477881112472801e+01 4.3463545645881316e+00 1.2310927672396756e+00 0 0 0
46 1 1 -1.3442192401672426e-01 2.7520263362093484e+01 4.6522419165382045e+00 8.7607763493106772e-01 0 0 0
47 1 1 -1.1796189069972973e-01 1.4371850896135321e+00 7.6965358881298513e+00 1.1661170615868706e+01 0 0 0
48 1 1 -1.3145038508239157e-01 1.5427018734259786e+01 7.9785495774983808e+00 1.2151322412423941e+01 0 0 0
49 1 1 1.5579709749436266e-01 7.4055043150038751e+00 1.7138801520152809e+00 3.3326527370096959e-01 0 0 0
50 1 1 1.5557028248602670e-01 2.0660153189196414e+01 1.8499775647808905e+00 3.6078613871531107e-01 0 0 0
51 1 1 1.4586826120114629e-01 8.7902861658419127e+00 1.0823706916754768e+01 1.1769023727019640e+01 0 0 0
52 1 1 1.6137801846160033e-01 2.2628851385400530e+01 1.0602190392736533e+01 1.1575598101238844e+01 0 0 0
53 1 1 1.4277485350837704e-01 1.4129240518167004e+01 9.9582046894618141e+00 -1.4519414006770470e-01 0 0 0
54 1 1 1.5213699713537421e-01 2.6986949615623558e+01 1.0537193879208779e+01 1.9817149589260952e-02 0 0 0
55 1 1 1.5462598817302650e-01 2.8586212497827947e+00 1.8012155200745918e+00 1.1183194645258656e+01 0 0 0
56 1 1 1.5132263193108875e-01 1.5433762377823236e+01 2.3347947029228626e+00 1.1841607877757538e+01 0 0 0
57 1 1 1.4318316680192086e-01 7.6850596246233360e+00 8.5992307682969145e+00 -6.2375641845875407e-03 0 0 0
58 1 1 1.5152677004780712e-01 2.0770462922964377e+01 8.8991864868296044e+00 1.7550408070410750e-02 0 0 0
59 1 1 1.5302700293261617e-01 9.1863219723444161e+00 2.9826895846278356e+00 1.1664831771557647e+01 0 0 0
60 1 1 1.3757306632642993e-01 2.2352625360489139e+01 2.9234291636145437e+00 1.1247554296946060e+01 0 0 0
61 1 1 1.5218488081435885e-01 1.4215883200173232e+01 3.1627202021829044e+00 6.0537260192893050e-01 0 0 0
62 1 1 1.7233521770673385e-01 2.7400636451753197e+01 3.4377995428456165e+00 1.5624513106287363e-01 0 0 0
63 1 1 1.4582205667753639e-01 1.5487011461412759e+00 9.0647280068882701e+00 1.1300020447923266e+01 0 0 0
64 1 1 1.4230472744640343e-01 1.5778083728516139e+01 9.1762066567844336e+00 1.1496231284320711e+01 0 0 0
65 1 1 -1.1573810542862026e-01 6.2315809478954307e+00 2.4035740929872906e+00 7.5534242588011113e-01 0 0 0
66 1 1 -1.1989016406017609e-01 1.9518341732326299e+01 2.4809711112608275e+00 9.2606335438118581e-01 0 0 0
67 1 1 -1.1556329067128097e-01 9.8891432301793696e+00 1.0176395929641258e+01 1.2356329634219458e+01 0 0 0
68 1 1 -1.2798779799450247e-01 2.3679576028958230e+01 9.8559176626785909e+00 1.2165492898441929e+01 0 0 0
69 1 1 -1.1358044602059526e-01 1.3091355607930451e+01 9.2228833777093779e+00 4.5294539268074585e-01 0 0 0
70 1 1 -1.3000401491447147e-01 2.5865085345691494e+01 9.9136523174646154e+00 5.0666055950788524e-01 0 0 0
71 1 1 -1.3041112289467671e-01 3.8482934532565638e+00 2.6879580622279029e+00 1.1564054274345379e+01 0 0 0
72 1 1 -1.4107035997192077e-01 1.6695987592527395e+01 2.8444932447880449e+00 1.2286313338293532e+01 0 0 0
73 1 1 -1.2445274384766646e-01 6.4648406706759936e+00 9.3150603733114181e+00 2.2400347017972755e-01 0 0 0
74 1 1 -1.0997078327787767e-01 1.9646929156316308e+01 9.5528666132546149e+00 5.0611090240895473e-01 0 0 0
75 1 1 -1.1492731218904589e-01 1.0311279396386992e+01 2.3839869879093740e+00 1.2279309131242544e+01 0 0 0
76 1 1 -1.2939201867965064e-01 2.3421321094350517e+01 2.1578677736503025e+00 1.1769236098305759e+01 0 0 0
77 1 1 -1.1378294147514842e-01 1.3036615548600180e+01 2.4663647079763860e+00 9.6806311922746247e-01 0 0 0
78 1 1 -1.4209673611481408e-01 2.6326147473363399e+01 2.5147024794670085e+00 4.4875205115300032e-01 0 0 0
79 1 1 -1.2253335796657797e-01 2.6691730126700302e+00 9.8288763382376452e+00 1.1790412096291261e+01 0 0 0
80 1 1 -1.1553657492118931e-01 1.7051993673010031e+01 9.7462080731732659e+00 1.1825295866663810e+01 0 0 0
81 1 1 1.1643027025139963e-01 5.3811561733232853e+00 1.8439495023043855e+00 1.7179831171648505e+00 0 0 0
82 1 1 1.1399709162493188e-01 1.8731187932074516e+01 1.7713474605928754e+00 1.9023354037041385e+00 0 0 0
83 1 1 1.0961038516294365e-01 1.0731292317562183e+01 1.0706558341856677e+01 1.3387737702709519e+01 0 0 0
84 1 1 1.0568490781750603e-01 2.4424176284382103e+01 1.0346752908009197e+01 1.3256909391136912e+01 0 0 0
85 1 1 1.1107331086907254e-01 1.2508206984770665e+01 9.8313900243760504e+00 1.5576041300004380e+00 0 0 0
86 1 1 1.2847789156007908e-01 2.5003394360040112e+01 1.0496325968767081e+01 1.4855118503615730e+00 0 0 0
87 1 1 1.0666383975905463e-01 4.6461254058541996e+00 2.2950483186535240e+00 1.2651924909817319e+01 0 0 0
88 1 1 1.0824810434551409e-01 1.7434120918758474e+01 2.1590563213749290e+00 1.3242206473031201e+01 0 0 0
89 1 1 1.3102230721172228e-01 5.5555564303995588e+00 8.8028372880068275e+00 1.1293052380002222e+00 0 0 0
90 1 1 1.1241059016995726e-01 1.8975402932464501e+01 9.1389888322437045e+00 1.6662650426561663e+00 0 0 0
91 1 1 1.2215820798270105e-01 1.0962206078929311e+01 3.1310443527867431e+00 1.3285119244715716e+01 0 0 0
92 1 1 1.1259863443392290e-01 2.4173842620572564e+01 2.6881960210569584e+00 1.2816593420776400e+01 0 0 0
93 1 1 1.2228613059352597e-01 1.2209552658141508e+01 2.9629780555779126e+00 1.9751753869277509e+00 0 0 0
94 1 1 1.1915810894040073e-01 2.5486274455164615e+01 2.7816120094106473e+00 1.4995144367712441e+00 0 0 0
95 1 1 1.0853640061141730e-01 3.6113871188354367e+00 9.2370282770208938e+00 1.2640802797785629e+01 0 0 0
96 1 1 1.1628527359147911e-01 1.7947852932660201e+01 9.1725885580675008e+00 1.2764035027382068e+01 0 0 0
97 1 1 -3.1551437797683712e-01 4.9227540225996762e+00 2.5487787032208775e-02 3.3869002067391936e+00 0 1 0
98 1 1 -3.4683025115348137e-01 1.8160280602231101e+01 -3.5261108364377558e-01 3.2662046658232526e+00 0 1 0
99 1 1 -3.7007680419571565e-01 1.1344034497781031e+01 1.2749638899734590e+01 1.4855133491022649e+01 0 -1 0
100 1 1 -3.4292989234496718e-01 2.5014770102680483e+01 1.2257225580024485e+01 1.4859045997359328e+01 0 -1 0
101 1 1 -3.4024987735218482e-01 1.2029759269214575e+01 1.1821977625181734e+01 3.0706557747438463e+00 0 -1 0
102 1 1 -3.6509953705084763e-01 2.4645880627448435e+01 1.2352999681203935e+01 3.1178616032852435e+00 0 -1 0
103 1 1 -3.8068134410911869e-01 5.3276416409752780e+00 4.9539875586769533e-01 1.4461589146591827e+01 0 1 0
104 1 1 -3.2701098101900622e-01 1.8021957296254211e+01 7.9151557353460689e-03 1.4528621908662867e+01 0 1 0
105 1 1 -3.4591026195491448e-01 4.8673804604567170e+00 7.2704276631618487e+00 3.0156998636270060e+00 0 0 0
106 1 1 -3.3688970586077738e-01 1.8486086494058103e+01 7.4942017235456859e+00 3.5448870010570728e+00 0 0 0
107 1 1 -3.5715380876007241e-01 1.1311889778916926e+01 5.2761360395271319e+00 1.4806859015139084e+01 0 0 0
108 1 1 -4.0223790834129197e-01 2.4845525633426000e+01 4.7234468642119776e+00 1.4337288178425634e+01 0 0 0
109 1 1 -3.8259114704227359e-01 1.1537201822094485e+01 4.6779352930427933e+00 3.7420396041731356e+00 0 0 0
110 1 1 -3.8827638829592759e-01 2.4778958943100776e+01 4.2966079503265062e+00 3.4699774643325085e+00 0 0 0
111 1 1 -3.9548639111463163e-01 4.4592690190304518e+00 7.2202677605881611e+00 1.3951476801347301e+01 0 0 0
112 1 1 -3.9208634051279484e-01 1.8576167682187666e+01 7.3005984680028533e+00 1.4371824297726683e+01 0 0 0
113 1 1 3.3710768532503189e-02 9.0395070834493030e+00 3.9284168280820975e-01 1.7990841587084653e+01 0 0 0
114 1 1 4.1943182819485253e-02 2.2256869848019530e+01 4.1354370908382188e-01 1.7311769433014071e+01 0 0 0
115 1 1 3.7079315791502650e-02 7.4636400883725162e+00 1.1701996792023243e+01 6.3703322442307071e+00 0 0 0
116 1 1 3.4079550735328937e-02 2.0172374243578968e+01 1.1847787033010675e+01 6.8899861848408666e+00 0 0 0
117 1 1 4.6391285054014790e-02 2.9945088380452187e+00 1.0639861565649193e+01 1.7814801036566102e+01 0 0 0
118 1 1 3.6836959222901859e-02 1.5984769062103316e+01 1.1896336586364137e+01 1.7919664004006052e+01 0 0 0
119 1 1 3.3066582141883141e-02 1.4115393042291634e+01 3.4889233896913363e-01 6.6378490252695039e+00 0 0 0
120 1 1 4.4770216647079135e-02 2.6799093580450382e+01 5.6549078599082336e-01 6.8385781728607062e+00 0 0 0
121 1 1 4.1420284449388500e-02 9.1038557794841246e+00 7.6030897249773322e+00 1.8167225569200625e+01 0 0 0
122 1 1 3.2313400317334609e-02 2.2877813408829805e+01 7.5633846788649990e+00 1.7449176059256175e+01 0 0 0
123 1 1 3.6637548881882032e-02 7.2233662870488784e+00 4.0996605998071498e+00 6.7602964572077573e+00 0 0 0
124 1 1 3.4608896603845182e-02 2.0678356404358418e+01 4.1931323252409882e+00 6.5750254739354288e+00 0 0 0
125 1 1 4.0904564568840160e-02 2.5868360890776430e+00 3.7183901578114709e+00 1.7882174970460675e+01 0 0 0
126 1 1 4.2908762782138711e-02 1.6048092846686060e+01 4.1040134594124336e+00 1.7893560839841584e+01 0 0 0
127 1 1 5.0594194716190956e-02 1.3857203485203724e+01 7.8856926665941902e+00 7.2248530023245507e+00 0 0 0
128 1 1 4.4033502471426567e-02 2.6988981355673243e+01 7.9418173875469513e+00 6.4855552599047277e+00 0 0 0
129 1 1 1.1185044422714657e-01 1.0238445654934237e+01 9.4480208438337554e-01 1.8503748831061017e+01 0 0 0
130 1 1 1.1261992265257492e-01 2.3436668175038093e+01 1.0014068393404925e+00 1.7748805659824818e+01 0 0 0
131 1 1 1.0886430253844825e-01 6.1890883513584365e+00 1.1186471161706224e+01 6.5635561319048774e+00 0 0 0
132 1 1 1.2373460488675805e-01 1.8980395266492650e+01 1.1333109587531412e+01 7.4878901969435834e+00 0 0 0
133 1 1 1.0618875614691189e-01 4.1308714486077527e+00 1.0069820860967843e+01 1.8291050806923401e+01 0 0 0
134 1 1 1.2645206226232986e-01 1.7179493964702807e+01 1.1172869294248729e+01 1.8284893533305336e+01 0 0 0
135 1 1 1.0992230341321921e-01 1.2938172116697467e+01 9.3405483697219260e-01 7.1583970017279590e+00 0 0 0
136 1 1 1.1872432354576171e-01 2.5690758779807432e+01 1.1914659860117434e+00 7.4555816958926666e+00 0 0 0
137 1 1 1.2753440620434281e-01 1.0390702533012643e+01 8.1383777376366915e+00 1.8476243243271441e+01 0 0 0
138 1 1 1.0383997229883563e-01 2.4064853168238084e+01 8.0041009252230051e+00 1.8052805460097467e+01 0 0 0
139 1 1 1.1470756285501692e-01 5.9220328718057100e+00 3.5698647383949877e+00 6.9871297068401752e+00 0 0 0
140 1 1 1.2562352251110048e-01 1.9446578123766091e+01 3.6956649156745618e+00 7.0565041818536880e+00 0 0 0
141 1 1 1.1873657189097442e-01 3.6669467579239114e+00 3.3043296230786829e+00 1.8681494153791654e+01 0 0 0
142 1 1 1.2288024576307024e-01 1.7200748487204720e+01 3.5802829843269359e+00 1.8504312921663441e+01 0 0 0
143 1 1 1.1731051259798983e-01 1.2676021927162603e+01 8.5475208073188984e+00 7.6401528797965881e+00 0 0 0
144 1 1 1.2815042908040519e-01 2.5832371896062849e+01 8.5740963160957406e+00 7.0032621518692100e+00 0 0 0
145 1 1 -1.2011754101595082e-01 1.0954405324806935e+01 3.4260055291507929e-01 1.9583823654196124e+01 0 0 0
146 1 1 -1.2438976025061232e-01 2.4215048267874668e+01 3.4462432767047391e-01 1.8719458363805728e+01 0 0 0
147 1 1 -1.3712497543030669e-01 5.2781208896679859e+00 1.1817558038753251e+01 7.4199568271610481e+00 0 0 0
148 1 1 -1.1854177708375713e-01 1.8396124249946691e+01 1.2182268656229652e+01 8.4392197658899768e+00 0 0 0
149 1 1 -1.0495091499630563e-01 4.8664625532825632e+00 1.0794951297377175e+01 1.9280316071711567e+01 0 0 0
150 1 1 -1.4407709688365050e-01 1.8002563699019692e+01 1.1956220989363496e+01 1.9124955312836320e+01 0 0 0
151 1 1 -1.1322595298796045e-01 1.2424389104878397e+01 4.7180689388183983e-01 8.3628637426529835e+00 0 0 0
152 1 1 -1.1016352026486520e-01 2.5033659129503025e+01 4.7767934071746709e-01 8.4620878336264056e+00 0 0 0
153 1 1 -1.3817089050354292e-01 1.1142620367652485e+01 7.3429118749163784e+00 1.9359129681005605e+01 0 0 0
154 1 1 -1.1599460419478749e-01 2.4662354110199111e+01 7.1983527381890990e+00 1.9031929617440213e+01 0 0 0
155 1 1 -1.4098921878249732e-01 5.0148667321928517e+00 4.4111118817019586e+00 7.6809513311884565e+00 0 0 0
156 1 1 -1.2154987667444790e-01 1.8782230525870322e+01 4.4587185349575371e+00 8.0660485330664571e+00 0 0 0
157 1 1 -1.0045730445622252e-01 4.1469641109770734e+00 4.2413723348461909e+00 1.9644739334538244e+01 0 0 0
158 1 1 -1.2436084892192437e-01 1.7895757909181150e+01 4.3122886360605861e+00 1.9505852960508953e+01 0 0 0
159 1 1 -1.2569873861042560e-01 1.1876989655870462e+01 7.9400437933776722e+00 8.5945086688895227e+00 0 0 0
160 1 1 -1.0835788113555346e-01 2.5125198586907171e+01 7.9339097098345963e+00 8.0431982036555922e+00 0 0 0
161 1 1 1.4715464722433264e-01 1.0519958456447373e+01 -9.4666868857713604e-01 1.9961942010539005e+01 0 0 0
162 1 1 1.4635113389334559e-01 2.3837385130857157e+01 -8.6140857817214922e-01 1.9300637654839392e+01 0 0 0
163 1 1 1.5620403800194016e-01 5.7123052879283867e+00 1.2904063296142672e+01 8.2060756502065892e+00 0 0 0
164 1 1 1.5890432799953003e-01 1.8804621303482534e+01 -1.3261106717589917e+00 8.7582804659276778e+00 0 1 0
165 1 1 1.5852958296069453e-01 4.4928841806448006e+00 1.2093150985784970e+01 1.9692683114827382e+01 0 0 0
166 1 1 1.4384856677813398e-01 1.7585935685417127e+01 1.3202300736811745e+01 1.9681747634161660e+01 0 0 0
167 1 1 1.5129870853306576e-01 1.2843634902923206e+01 -8.0200123386293709e-01 8.8640821772143905e+00 0 0 0
168 1 1 1.5351879190423201e-01 2.5438100155580365e+01 -8.2395574254105686e-01 8.7611590813257951e+00 0 0 0
169 1 1 1.4839163754424917e-01 1.0735730943111673e+01 6.1304909171354005e+00 1.9916092756287391e+01 0 0 0
170 1 1 1.4197868475873007e-01 2.4005457673613375e+01 5.9639416928998497e+00 1.9353444247768323e+01 0 0 0
171 1 1 1.4541188054108953e-01 5.3454853545076837e+00 5.7242129522504790e+00 8.1363744413120251e+00 0 0 0
172 1 1 1.5280757162921280e-01 1.9241678620800812e+01 5.7442198232454640e+00 8.4599632371551685e+00 0 0 0
173 1 1 1.6930735213497214e-01 3.5736907824239292e+00 5.5012949768030630e+00 1.9879212095310216e+01 0 0 0
174 1 1 1.5257866477505969e-01 1.7382407410367549e+01 5.5622063431662632e+00 1.9909691327911688e+01 0 0 0
175 1 1 1.5059963781263669e-01 1.2154540252350833e+01 6.6319415215142863e+00 9.0602593452760374e+00 0 0 0
176 1 1 1.4747968028106970e-01 2.5542677678750827e+01 6.6740708006125544e+00 8.5807089980709215e+00 0 0 0
177 1 1 -1.3206690228116286e-01 9.4856353261157835e+00 1.3245696494706332e+01 1.9292527484140017e+01 0 -1 0
178 1 1 -1.4668247457278705e-01 2.2739064902085154e+01 1.3285325238403191e+01 1.8750744975354742e+01 0 -1 0
179 1 1 -1.1927694073102255e-01 7.0227208071972118e+00 1.3398646437539394e+01 8.0155553020907053e+00 0 0 0
180 1 1 -1.6425770031063341e-01 1.9919865852436690e+01 -8.6414502419122496e-01 8.0716019086655511e+00 0 1 0
181 1 1 -1.2070907477057952e-01 3.3572057089066787e+00 1.2671055290673609e+01 1.9048066901848252e+01 0 0 0
182 1 1 -1.5603630804010338e-01 1.6325456612956046e+01 -1.0465425178779253e+00 1.9318374367783107e+01 0 1 0
183 1 1 -1.3229292221403569e-01 1.3868274075485738e+01 1.3321505954802848e+01 8.1936009371428451e+00 0 -1 0
184 1 1 -1.4008796080217126e-01 2.6496827697830010e+01 1.3355627719947003e+01 8.0583697047720211e+00 0 -1 0
185 1 1 -1.4487053313724618e-01 9.4408393470571870e+00 5.6528015608517350e+00 1.9525770240021203e+01 0 0 0
186 1 1 -1.3778511702682572e-01 2.2772472309434342e+01 5.5869578921498224e+00 1.8780645086871807e+01 0 0 0
187 1 1 -1.3249132049764326e-01 6.6637564353011669e+00 6.1661021268073544e+00 7.8455103817349254e+00 0 0 0
188 1 1 -1.2713719884945637e-01 2.0259628826549040e+01 6.3121723372410870e+00 7.7228227381010051e+00 0 0 0
189 1 1 -1.2955369451724078e-01 2.4907045615821843e+00 5.8668096680991599e+00 1.9063696277225567e+01 0 0 0
190 1 1 -1.5810503131091155e-01 1.6309067616290339e+01 6.1488819095981366e+00 1.9210825884840396e+01 0 0 0
191 1 1 -1.4324400767467291e-01 1.3226550571484292e+01 5.9100792046861930e+00 8.5106438847775063e+00 0 0 0
192 1 1 -1.3627493405568034e-01 2.6698397051102265e+01 6.0659725630968273e+00 8.0631372442500080e+00 0 0 0
193 1 1 1.0288933354756728e-01 8.6792649055209736e+00 -9.0782781581152228e-01 1.8350579158926188e+01 0 0 0
194 1 1 1.0636715441189482e-01 2.1927952994627610e+01 -8.9706193903513842e-01 1.7765687950864965e+01 0 0 0
195 1 1 1.0854946605935142e-01 7.9041850005645786e+00 1.2860913102095783e+01 7.0609457580380077e+00 0 0 0
196 1 1 1.0670038656645145e-01 2.0662539612134189e+01 1.3150526607142394e+01 7.1566458666229185e+00 0 0 0
197 1 1 9.6897388490533573e-02 1.5528311786943526e+01 1.3128458853366460e+01 1.8363245764659460e+01 0 0 0
198 1 1 1.2633415154586419e-01 2.6261554525887942e+00 1.1968095467272395e+01 1.8076509254287878e+01 1 0 0
199 1 1 1.1615538855811602e-01 2.7184267772853246e+01 -7.8241868901118194e-01 7.0723189657924230e+00 -1 0 0
200 1 1 1.0519681520136684e-01 1.4513649641732094e+01 -9.2064248483346867e-01 7.1129039119259510e+00 0 0 0
201 1 1 1.1036793253726360e-01 8.6174928313333794e+00 6.3633274161584366e+00 1.8636248047138707e+01 0 0 0
202 1 1 1.1895116222493002e-01 2.2184086177647995e+01 6.3617135384009229e+00 1.7797293342414932e+01 0 0 0
203 1 1 1.0491442553706959e-01 7.5905591393242133e+00 5.3706773312596336e+00 7.1378211273070171e+00 0 0 0
204 1 1 9.8455704907219527e-02 2.1078930582983102e+01 5.5310896356247445e+00 6.8287250749483848e+00 0 0 0
205 1 1 1.2548439680320744e-01 1.5662441818802968e+01 5.4449001718990191e+00 1.8185167235818227e+01 0 0 0
206 1 1 1.1621908688700373e-01 2.0663157296493400e+00 5.0398743023438772e+00 1.8004603675983475e+01 1 0 0
207 1 1 1.1724679362977961e-01 2.7353876799635124e+01 6.6622502439793374e+00 6.9745422312384928e+00 -1 0 0
208 1 1 1.1406008212594809e-01 1.4147245284993572e+01 6.5692643625246347e+00 7.6218388552501644e+00 0 0 0
209 1 1 -3.4868542846954637e-01 8.2601425456348672e+00 1.2972246439588173e+00 1.6989385666700336e+01 0 0 0
210 1 1 -3.4444522286403589e-01 2.1468327554964766e+01 1.1850843247549459e+00 1.6191591259474443e+01 0 0 0
211 1 1 -4.0106510624190317e-01 8.4738326846859771e+00 1.0986764342923557e+01 5.4083681171074138e+00 0 0 0
212 1 1 -3.4332311377636821e-01 2.0845354304725920e+01 1.0958122333366514e+01 5.8210085080409719e+00 0 0 0
213 1 1 -4.1177283149412319e-01 1.5066151418041015e+01 1.1316970511233349e+01 1.6826537561099435e+01 0 0 0
214 1 1 -3.6639649831592752e-01 1.9876825215601839e+00 9.8941941165250462e+00 1.6862158470143719e+01 1 0 0
215 1 1 -3.5109314909317735e-01 2.7693256984997547e+01 1.2736912537766587e+00 5.8141470145396132e+00 -1 0 0
216 1 1 -3.4423748691671918e-01 1.4841209555352410e+01 1.1152766509910617e+00 5.5203602651291517e+00 0 0 0
217 1 1 -3.2367933208017358e-01 8.2157622686873157e+00 8.3776748138165971e+00 1.7150041605865006e+01 0 0 0
218 1 1 -3.6939930346476507e-01 2.2330677058678479e+01 8.5250374080155424e+00 1.6365224550238779e+01 0 0 0
219 1 1 -3.5287680049637288e-01 8.1884262331449520e+00 3.0255919698679152e+00 6.1767571474386420e+00 0 0 0
220 1 1 -3.8010737854963011e-01 2.1590855530925463e+01 3.2609424569779710e+00 5.7212327072464637e+00 0 0 0
221 1 1 -3.5782221927078534e-01 1.5202925875735591e+01 3.4005907647654805e+00 1.6804934790298056e+01 0 0 0
222 1 1 -3.6375390735799346e-01 2.1083318491605936e+00 2.8553681714899914e+00 1.6694942944691036e+01 1 0 0
223 1 1 -3.3159475825578205e-01 2.7900918782436531e+01 8.7340658700445726e+00 5.5134055596442924e+00 -1 0 0
224 1 1 -4.0821543775879054e-01 1.4833486975947832e+01 8.6785175522433420e+00 6.3372626740796196e+00 0 0 0
225 1 2 -5.6482934285167034e-03 7.2329707613310097e+00 1.3154698436705409e+01 2.2355435897615235e+00 0 0 0
226 1 2 -1.5750411398930537e-02 2.0667453505764296e+01 1.3175552898658742e+01 1.9776390958121883e+00 0 0 0
227 1 2 -2.1148100775747292e-02 9.0731475798770003e+00 -6.4398428236581484e-01 1.3673333312832209e+01 0 0 0
228 1 2 -1.0122834889831307e-02 2.2655125182981607e+01 -9.4196458179328257e-01 1.3617931846456100e+01 0 0 0
229 1 2 -1.7974488270398534e-04 1.4352299419683055e+01 1.3284184267690884e+01 1.8697451552184621e+00 0 -1 0
230 1 2 6.8733072504396225e-04 2.6988278661231327e+01 -8.7623608124262797e-01 1.9990704570028743e+00 0 0 0
231 1 2 -1.2258199250986763e-02 2.6766813985850222e+00 -6.9812242753276788e-01 1.4128770763493760e+01 0 1 0
232 1 2 -4.7186909341901499e-03 1.5260891527056831e+01 -1.1321339747318511e+00 1.3441132088147658e+01 0 1 0
233 1 2 -1.2855016134649209e-02 7.5412649262953177e+00 5.6622834988876303e+00 2.5406455589049335e+00 0 0 0
234 1 2 -5.0633229037501497e-03 2.1104338787300701e+01 6.0630203905616957e+00 2.5899967689118863e+00 0 0 0
235 1 2 -5.2482755816363538e-03 8.8442321155434360e+00 6.3816241140273355e+00 1.3456680114217004e+01 0 0 0
236 1 2 -1.2082498433017966e-02 2.2382591452293518e+01 6.1066833789753909e+00 1.3281333763495011e+01 0 0 0
237 1 2 -9.5074526373019920e-03 1.4023932213998886e+01 6.3159575902961631e+00 2.8142187190634136e+00 0 0 0
238 1 2 -1.9808205919854736e-02 2.6811098631364949e+01 6.3656918608365389e+00 2.4830711538968417e+00 0 0 0
239 1 2 -2.4453014358346417e-02 2.2366365245778024e+00 5.5854838617474600e+00 1.3025611855891741e+01 0 0 0
240 1 2 -1.1092435347927150e-02 1.5799101260237967e+01 6.1214928584743715e+00 1.3724140552909763e+01 0 0 0
241 1 2 -1.4469877250790558e-02 8.2428293322862451e+00 2.4137157622381999e+00 -7.1877702161113577e-01 0 0 0
242 1 2 -8.1404850564499240e-04 2.1450209373009297e+01 2.5419133771020115e+00 -8.0614314416109800e-01 0 0 0
243 1 2 -3.7734752312351058e-03 8.0438265863643021e+00 1.0182148121680070e+01 1.0541738764668134e+01 0 0 0
244 1 2 -7.6525342707314814e-05 2.1713202136213830e+01 9.9385332817059791e+00 1.0454466580632905e+01 0 0 0
245 1 2 -6.8736273957977524e-03 1.4562556908801197e+01 9.2873935462738384e+00 2.0903095418991661e+01 0 0 -1
246 1 2 -1.2377542774383646e-04 2.7845170003863402e+01 9.9063547321787073e+00 -1.0804276213865944e+00 0 0 0
247 1 2 -1.2886570878582262e-03 1.9202454903989352e+00 2.0359641488518929e+00 9.9366591728773344e+00 0 0 0
248 1 2 -1.3054198877566602e-02 1.4519905650579608e+01 3.3115038691981322e+00 1.1011216022604975e+01 0 0 0
249 1 2 -5.2195203594368050e-03 8.4456014666510040e+00 8.9638291107600221e+00 2.1145592263546675e+01 0 0 -1
250 1 2 -2.5433014579580859e-03 2.1217703094675098e+01 9.4256277555353076e+00 2.1051616442249347e+01 0 0 -1
251 1 2 -1.8508351231110227e-02 8.4830588475924653e+00 2.1774474811268543e+00 1.0560609259463121e+01 0 0 0
252 1 2 -5.7418728216719062e-03 2.1411890601792258e+01 2.3754219367475824e+00 1.0063391234538582e+01 0 0 0
253 1 2 -2.8225396895637245e-03 1.5204628883916879e+01 2.6612751432811304e+00 -5.4598925236343032e-01 0 0 0
254 1 2 -1.3062650706321170e-02 1.6078329849643036e+00 3.1295918765583162e+00 -8.8437861121113803e-01 1 0 0
255 1 2 -3.2638896881674526e-03 2.7277562560154550e+01 9.7092266288982767e+00 1.0315012829907030e+01 -1 0 0
256 1 2 4.8984171339004484e-03 1.4814369018924221e+01 9.8705542949308676e+00 1.0446514552306381e+01 0 0 0
257 1 2 -1.1716838413827108e-02 4.2079375413774844e+00 2.7306196771378710e+00 2.2802694543147641e+00 0 0 0
258 1 2 2.2943008554734932e-03 1.7573840895122146e+01 2.6967708268378869e+00 2.4426611843536112e+00 0 0 0
259 1 2 -1.5845380479756338e-03 1.1955957819971470e+01 9.8129776954132524e+00 1.3824769592664065e+01 0 0 0
260 1 2 -8.6956097915793298e-03 2.5641527757590250e+01 9.4893730109592198e+00 1.3758407832877708e+01 0 0 0
261 1 2 5.4651857181788679e-03 1.1247785101026292e+01 9.0033575982338476e+00 2.1929559094300970e+00 0 0 0
262 1 2 -2.6963749598203496e-03 2.3817613821868605e+01 9.6580581608590226e+00 2.0078346523004078e+00 0 0 0
263 1 2 -4.7341092119769640e-03 5.8732930438411532e+00 3.2232486205135604e+00 1.3076823618034336e+01 0 0 0
264 1 2 -1.0112419231566770e-02 1.8731444967808368e+01 2.8636565521559465e+00 1.3836109797076254e+01 0 0 0
265 1 2 -6.7776684970547903e-03 4.2042358666840629e+00 9.6021968967897049e+00 1.3025873396218124e+00 0 0 0
266 1 2 -9.2434173467036279e-03 1.7725205737188805e+01 1.0083706128414558e+01 1.9503833417408543e+00 0 0 0
267 1 2 5.9138447125716351e-03 1.2202516675623233e+01 2.3690652396799696e+00 1.3875178844106552e+01 0 0 0
268 1 2 -4.6538014075560435e-03 2.5409071586782225e+01 1.8861694588782112e+00 1.3292449275856328e+01 0 0 0
269 1 2 2.0706690803385663e-03 1.0974161525279698e+01 2.0462307354599623e+00 2.2464730535662492e+00 0 0 0
270 1 2 -4.9928242536812946e-03 2.4337593135802599e+01 1.6960778946498976e+00 1.7434441065998127e+00 0 0 0
271 1 2 -6.7911738351807312e-03 4.8132090183452227e+00 1.0115998514972565e+01 1.3267735238368209e+01 0 0 0
272 1 2 -1.1257749106270039e-03 1.9152808199567886e+01 1.0089275907538676e+01 1.3135253074265199e+01 0 0 0
273 1 2 -1.3717410492345566e-04 1.0707065660662915e+01 2.4221789930149820e+00 1.7960831005243456e+01 0 0 0
274 1 2 -1.2834971883109184e-02 2.3984292737038352e+01 2.3658067660218620e+00 1.7216611332856765e+01 0 0 0
275 1 2 -6.3329640087744915e-03 5.7771933512581137e+00 9.8482896788906906e+00 5.7750575669657653e+00 0 0 0
276 1 2 -7.0357497944030130e-03 1.8375630057581549e+01 9.9388369328097621e+00 7.1833108789688769e+00 0 0 0
277 1 2 -1.7859764182007520e-02 4.6458450174308847e+00 8.6076064737157783e+00 1.8030594925810910e+01 0 0 0
278 1 2 -8.3999807983899527e-03 1.7678179068133602e+01 9.8030579560730491e+00 1.7735943848250706e+01 0 0 0