ITEM: TIMESTEP
0
ITEM: NUMBER OF ATOMS
336
ITEM: BOX BOUNDS xy xz yz pp pp pp
0.0000000000000000e+00 2.6364000320399999e+01 0.0000000000000000e+00
0.0000000000000000e+00 1.1574000358599999e+01 0.0000000000000000e+00
0.0000000000000000e+00 1.0708999633800000e+01 0.0000000000000000e+00
ITEM: ATOMS id type xs ys zs
1 1 0.0920165 0.355177 0.444287
2 1 0.907984 0.644823 0.555713
3 1 0.157984 0.644823 0.944287
4 1 0.342016 0.355177 0.055713
5 1 0.907984 0.855177 0.0557131
6 1 0.0920164 0.144823 0.944287
7 1 0.342016 0.144823 0.555713
8 1 0.157984 0.855177 0.444287
9 1 0.592016 0.355177 0.444287
10 1 0.407984 0.644823 0.555713
11 1 0.657984 0.644823 0.944287
12 1 0.842016 0.355177 0.0557129
13 1 0.407984 0.855177 0.0557129
14 1 0.592016 0.144823 0.944287
15 1 0.842016 0.144823 0.555713
16 1 0.657984 0.855177 0.444287
17 1 0.0240499 0.239802 0.339921
18 1 0.97595 0.760198 0.660079
19 1 0.22595 0.760198 0.839921
20 1 0.27405 0.239802 0.160079
21 1 0.97595 0.739802 0.160079
22 1 0.0240499 0.260198 0.839921
23 1 0.27405 0.260198 0.660079
24 1 0.22595 0.739802 0.339921
25 1 0.52405 0.239803 0.339922
26 1 0.47595 0.760197 0.660078
27 1 0.72595 0.760197 0.839922
28 1 0.77405 0.239802 0.160078
29 1 0.47595 0.739802 0.160078
30 1 0.52405 0.260197 0.839921
31 1 0.77405 0.260197 0.660078
32 1 0.72595 0.739803 0.339922
33 1 0.0742755 0.378699 0.210947
34 1 0.925725 0.621301 0.789053
35 1 0.175725 0.621301 0.710947
36 1 0.324275 0.378699 0.289053
37 1 0.925725 0.878699 0.289053
38 1 0.0742754 0.121301 0.710947
39 1 0.324275 0.121301 0.789053
40 1 0.175725 0.878699 0.210947
41 1 0.574275 0.378699 0.210947
42 1 0.425725 0.621301 0.789053
43 1 0.675725 0.621301 0.710947
44 1 0.824275 0.378699 0.289053
45 1 0.425725 0.878699 0.289053
46 1 0.574275 0.121301 0.710947
47 1 0.824275 0.121301 0.789053
48 1 0.675725 0.878699 0.210947
49 2 0.124518 0.295357 0.427276
50 2 0.875482 0.704643 0.572724
51 2 0.125482 0.704643 0.927276
52 2 0.374518 0.295357 0.0727239
53 2 0.875482 0.795357 0.0727239
54 2 0.124518 0.204643 0.927276
55 2 0.374518 0.204643 0.572724
56 2 0.125482 0.795357 0.427276
57 2 0.624518 0.295357 0.427276
58 2 0.375482 0.704643 0.572724
59 2 0.625482 0.704643 0.927276
60 2 0.874518 0.295357 0.0727239
61 2 0.375482 0.795357 0.0727239
62 2 0.624518 0.204643 0.927276
63 2 0.874518 0.204643 0.572724
64 2 0.625482 0.795357 0.427276
65 2 0.102811 0.404608 0.528766
66 2 0.897189 0.595392 0.471234
67 2 0.147189 0.595392 0.0287663
68 2 0.352811 0.404608 0.971234
69 2 0.897189 0.904608 0.971234
70 2 0.102811 0.0953924 0.0287663
71 2 0.352811 0.0953924 0.471234
72 2 0.147189 0.904608 0.528766
73 2 0.602811 0.404608 0.528766
74 2 0.397189 0.595392 0.471234
75 2 0.647189 0.595392 0.0287663
76 2 0.852811 0.404608 0.971234
77 2 0.397189 0.904608 0.971234
78 2 0.602811 0.0953924 0.0287663
79 2 0.852811 0.0953924 0.471234
80 2 0.647189 0.904608 0.528766
81 2 0.985584 0.203646 0.353326
82 2 0.0144161 0.796354 0.646674
83 2 0.264416 0.796354 0.853326
84 2 0.235584 0.203646 0.146674
85 2 0.0144161 0.703646 0.146674
86 2 0.985584 0.296354 0.853326
87 2 0.235584 0.296354 0.646674
88 2 0.264416 0.703646 0.353326
89 2 0.485584 0.203646 0.353326
90 2 0.514416 0.796354 0.646674
91 2 0.764416 0.796354 0.853326
92 2 0.735584 0.203646 0.146674
93 2 0.514416 0.703646 0.146674
94 2 0.485584 0.296354 0.853326
95 2 0.735584 0.296354 0.646674
96 2 0.764416 0.703646 0.353326
97 2 0.0483245 0.163777 0.318788
98 2 0.951675 0.836223 0.681212
99 2 0.201675 0.836223 0.818788
100 2 0.298325 0.163777 0.181212
101 2 0.951675 0.663777 0.181212
102 2 0.0483245 0.336223 0.818788
103 2 0.298325 0.336223 0.681212
104 2 0.201675 0.663777 0.318788
105 2 0.548325 0.163777 0.318788
106 2 0.451675 0.836223 0.681212
107 2 0.701675 0.836223 0.818788
108 2 0.798325 0.163777 0.181212
109 2 0.451676 0.663777 0.181212
110 2 0.548325 0.336223 0.818788
111 2 0.798325 0.336223 0.681212
112 2 0.701675 0.663777 0.318788
113 2 0.105728 0.318946 0.184587
114 2 0.894272 0.681054 0.815413
115 2 0.144272 0.681054 0.684587
116 2 0.355728 0.318946 0.315413
117 2 0.894272 0.818946 0.315413
118 2 0.105728 0.181054 0.684587
119 2 0.355728 0.181054 0.815413
120 2 0.144272 0.818946 0.184587
121 2 0.605728 0.318946 0.184587
122 2 0.394272 0.681054 0.815413
123 2 0.644272 0.681054 0.684587
124 2 0.855728 0.318946 0.315413
125 2 0.394272 0.818946 0.315413
126 2 0.605728 0.181054 0.684587
127 2 0.855728 0.181054 0.815413
128 2 0.644272 0.818946 0.184587
129 2 0.0732121 0.443361 0.134634
130 2 0.926788 0.556639 0.865366
131 2 0.176788 0.556639 0.634634
132 2 0.323212 0.443361 0.365366
133 2 0.926788 0.943361 0.365366
134 2 0.0732121 0.0566388 0.634634
135 2 0.323212 0.0566388 0.865366
136 2 0.176788 0.943361 0.134634
137 2 0.573212 0.443361 0.134634
138 2 0.426788 0.556639 0.865366
139 2 0.676788 0.556639 0.634634
140 2 0.823212 0.443361 0.365366
141 2 0.426788 0.943361 0.365366
142 2 0.573212 0.0566388 0.634634
143 2 0.823212 0.0566388 0.865366
144 2 0.676788 0.943361 0.134634
145 3 0.0891783 0.43285 0.332531
146 3 0.910822 0.56715 0.667469
147 3 0.160822 0.56715 0.832531
148 3 0.339178 0.43285 0.167469
149 3 0.910822 0.93285 0.167469
150 3 0.0891783 0.0671502 0.832531
151 3 0.339178 0.0671501 0.667469
152 3 0.160822 0.93285 0.332531
153 3 0.589178 0.43285 0.332531
154 3 0.410822 0.56715 0.667469
155 3 0.660822 0.56715 0.832531
156 3 0.839178 0.43285 0.167469
157 3 0.410822 0.93285 0.167469
158 3 0.589178 0.0671501 0.832531
159 3 0.839178 0.0671501 0.667469
160 3 0.660822 0.93285 0.332531
161 3 0.0455472 0.281649 0.461419
162 3 0.954453 0.718351 0.538581
163 3 0.204453 0.718351 0.961419
164 3 0.295547 0.281649 0.038581
165 3 0.954453 0.781649 0.0385809
166 3 0.0455473 0.218351 0.961419
167 3 0.295547 0.218351 0.538581
168 3 0.204453 0.781649 0.461419
169 3 0.545547 0.281649 0.461419
170 3 0.454453 0.718351 0.538581
171 3 0.704453 0.718351 0.961419
172 3 0.795547 0.281649 0.0385812
173 3 0.454453 0.781649 0.0385812
174 3 0.545547 0.218351 0.961419
175 3 0.795547 0.218351 0.538581
176 3 0.704453 0.781649 0.461419
177 3 0.0268631 0.307218 0.220163
178 3 0.973137 0.692782 0.779837
179 3 0.223137 0.692782 0.720163
180 3 0.276863 0.307218 0.279837
181 3 0.973137 0.807218 0.279837
182 3 0.0268631 0.192782 0.720163
183 3 0.276863 0.192782 0.779837
184 3 0.223137 0.807218 0.220163
185 3 0.526863 0.307218 0.220163
186 3 0.473137 0.692782 0.779837
187 3 0.723137 0.692782 0.720163
188 3 0.776863 0.307218 0.279837
189 3 0.473137 0.807218 0.279837
190 3 0.526863 0.192782 0.720163
191 3 0.776863 0.192782 0.779837
192 3 0.723137 0.807218 0.220163
193 3 0.116837 0.549765 0.334279
194 3 0.883163 0.450235 0.665721
195 3 0.133163 0.450235 0.834279
196 3 0.366837 0.549765 0.165721
197 3 0.883163 0.049765 0.165721
198 3 0.116837 0.950235 0.834279
199 3 0.366837 0.950235 0.665721
200 3 0.133163 0.049765 0.334279
201 3 0.616837 0.549765 0.334279
202 3 0.383163 0.450235 0.665721
203 3 0.633163 0.450235 0.834279
204 3 0.866837 0.549765 0.165721
205 3 0.383163 0.049765 0.165721
206 3 0.616837 0.950235 0.834279
207 3 0.866837 0.950235 0.665721
208 3 0.633163 0.049765 0.334279
209 3 0.00558528 0.352252 0.531285
210 3 0.994415 0.647748 0.468715
211 3 0.244415 0.647748 0.0312849
212 3 0.255585 0.352252 0.968715
213 3 0.994415 0.852252 0.968715
214 3 0.00558527 0.147748 0.0312849
215 3 0.255585 0.147748 0.468715
216 3 0.244415 0.852252 0.531285
217 3 0.505585 0.352252 0.531285
218 3 0.494415 0.647748 0.468715
219 3 0.744415 0.647748 0.0312849
220 3 0.755585 0.352252 0.968715
221 3 0.494415 0.852252 0.968715
222 3 0.505585 0.147748 0.0312849
223 3 0.755585 0.147748 0.468715
224 3 0.744415 0.852252 0.531285
225 3 0.981116 0.386648 0.205469
226 3 0.0188837 0.613352 0.794531
227 3 0.268884 0.613352 0.705468
228 3 0.231116 0.386648 0.294531
229 3 0.0188836 0.886648 0.294531
230 3 0.981116 0.113352 0.705469
231 3 0.231116 0.113352 0.794532
232 3 0.268884 0.886648 0.205469
233 3 0.481116 0.386649 0.205468
234 3 0.518884 0.613351 0.794532
235 3 0.768884 0.613351 0.705468
236 3 0.731116 0.386648 0.294531
237 3 0.518884 0.886648 0.294532
238 3 0.481116 0.113351 0.705468
239 3 0.731116 0.113351 0.794532
240 3 0.768884 0.886649 0.205468
241 4 0.117477 0.611513 0.234196
242 4 0.882523 0.388487 0.765804
243 4 0.132523 0.388487 0.734196
244 4 0.367477 0.611513 0.265804
245 4 0.882523 0.111513 0.265804
246 4 0.117477 0.888487 0.734196
247 4 0.367477 0.888487 0.765804
248 4 0.132523 0.111513 0.234196
249 4 0.617477 0.611513 0.234196
250 4 0.382523 0.388487 0.765804
251 4 0.632523 0.388487 0.734196
252 4 0.867477 0.611513 0.265804
253 4 0.382523 0.111513 0.265804
254 4 0.617477 0.888487 0.734196
255 4 0.867477 0.888487 0.765804
256 4 0.632523 0.111513 0.234196
257 4 0.137261 0.584185 0.437027
258 4 0.862739 0.415815 0.562973
259 4 0.112739 0.415815 0.937027
260 4 0.387261 0.584185 0.0629728
261 4 0.862739 0.0841853 0.0629727
262 4 0.137261 0.915815 0.937027
263 4 0.387261 0.915815 0.562973
264 4 0.112739 0.0841853 0.437027
265 4 0.637261 0.584185 0.437027
266 4 0.362739 0.415815 0.562973
267 4 0.612739 0.415815 0.937027
268 4 0.887261 0.584185 0.0629728
269 4 0.362739 0.0841853 0.0629728
270 4 0.637261 0.915815 0.937027
271 4 0.887261 0.915815 0.562973
272 4 0.612739 0.0841853 0.437027
273 4 0.959209 0.315976 0.532365
274 4 0.0407911 0.684024 0.467635
275 4 0.290791 0.684024 0.0323646
276 4 0.209209 0.315976 0.967635
277 4 0.0407911 0.815976 0.967635
278 4 0.959209 0.184024 0.0323646
279 4 0.209209 0.184024 0.467635
280 4 0.290791 0.815976 0.532365
281 4 0.459209 0.315977 0.532365
282 4 0.540791 0.684023 0.467635
283 4 0.790791 0.684023 0.0323646
284 4 0.709209 0.315977 0.967635
285 4 0.540791 0.815977 0.967635
286 4 0.459209 0.184023 0.0323646
287 4 0.709209 0.184023 0.467635
288 4 0.790791 0.815977 0.532365
289 4 0.0202323 0.432888 0.606839
290 4 0.979768 0.567112 0.393161
291 4 0.229768 0.567112 0.106839
292 4 0.270232 0.432888 0.893161
293 4 0.979768 0.932888 0.893161
294 4 0.0202323 0.0671123 0.106839
295 4 0.270232 0.0671123 0.393161
296 4 0.229768 0.932888 0.606839
297 4 0.520232 0.432888 0.606839
298 4 0.479768 0.567112 0.393161
299 4 0.729768 0.567112 0.106839
300 4 0.770232 0.432888 0.893161
301 4 0.479768 0.932888 0.893161
302 4 0.520232 0.0671124 0.106839
303 4 0.770232 0.0671124 0.393161
304 4 0.729768 0.932888 0.606839
305 4 0.937753 0.356474 0.251591
306 4 0.0622475 0.643526 0.748409
307 4 0.312247 0.643526 0.751591
308 4 0.187752 0.356474 0.248409
309 4 0.0622476 0.856474 0.248409
310 4 0.937753 0.143526 0.751591
311 4 0.187753 0.143526 0.748409
312 4 0.312247 0.856474 0.251591
313 4 0.437753 0.356474 0.251591
314 4 0.562247 0.643526 0.748409
315 4 0.812247 0.643526 0.751591
316 4 0.687753 0.356474 0.248409
317 4 0.562247 0.856474 0.248409
318 4 0.437753 0.143526 0.751591
319 4 0.687753 0.143526 0.748409
320 4 0.812247 0.856474 0.251591
321 4 0.985019 0.477359 0.135116
322 4 0.0149808 0.522641 0.864884
323 4 0.264981 0.522641 0.635116
324 4 0.235019 0.477359 0.364884
325 4 0.0149808 0.977359 0.364884
326 4 0.985019 0.022641 0.635116
327 4 0.235019 0.022641 0.864884
328 4 0.264981 0.977359 0.135116
329 4 0.485019 0.477359 0.135116
330 4 0.514981 0.522641 0.864884
331 4 0.764981 0.522641 0.635116
332 4 0.735019 0.477359 0.364884
333 4 0.514981 0.977359 0.364884
334 4 0.485019 0.0226411 0.635116
335 4 0.735019 0.0226411 0.864884
336 4 0.764981 0.977359 0.135116
ITEM: TIMESTEP
1000
ITEM: NUMBER OF ATOMS
336
ITEM: BOX BOUNDS xy xz yz pp pp pp
-2.4749654644576613e-01 2.6599480391226074e+01 1.3709077487605375e-02
-3.4848632926444567e-01 1.1887356596074829e+01 -2.5725553107292173e-02
-3.0020430355664818e-01 1.1009203937356638e+01 -3.5130091789598146e-02
ITEM: ATOMS id type xs ys zs
1 1 0.0991534 0.329829 0.397147
2 1 0.902542 0.632816 0.557959
3 1 0.164538 0.630363 0.925756
4 1 0.351323 0.365435 0.0661634
5 1 0.926952 0.878426 0.059406
6 1 0.0721668 0.113057 0.934196
7 1 0.34237 0.140207 0.559164
8 1 0.148861 0.894304 0.412138
9 1 0.594712 0.368961 0.431014
10 1 0.399271 0.583437 0.54823
11 1 0.64988 0.664259 0.934597
12 1 0.847106 0.360412 0.0959744
13 1 0.412436 0.832914 0.0879079
14 1 0.590319 0.100643 0.900047
15 1 0.850894 0.168698 0.610776
16 1 0.692252 0.93364 0.429465
17 1 0.0243322 0.262371 0.276992
18 1 0.969761 0.739921 0.679089
19 1 0.222853 0.751846 0.801252
20 1 0.279516 0.258291 0.15634
21 1 0.97419 0.773514 0.220633
22 1 0.02022 0.254519 0.822813
23 1 0.273955 0.240534 0.688088
24 1 0.209287 0.765621 0.30792
25 1 0.53002 0.260203 0.304493
26 1 0.450251 0.736478 0.652844
27 1 0.729133 0.734354 0.815874
28 1 0.784343 0.26573 0.216337
29 1 0.486929 0.75583 0.207489
30 1 0.533412 0.221828 0.775342
31 1 0.773089 0.257248 0.700444
32 1 0.726787 0.746867 0.367408
33 1 0.0884762 0.393752 0.186853
34 1 0.907836 0.614735 0.781904
35 1 0.179419 0.586993 0.703383
36 1 0.338976 0.367307 0.291489
37 1 0.916779 0.923062 0.275078
38 1 0.0786766 0.134757 0.710191
39 1 0.341013 0.121953 0.785884
40 1 0.177164 0.932442 0.196874
41 1 0.585866 0.400277 0.208473
42 1 0.408652 0.594973 0.774854
43 1 0.662099 0.60987 0.724837
44 1 0.810959 0.463233 0.276889
45 1 0.419582 0.869118 0.306825
46 1 0.568885 0.0431155 0.694972
47 1 0.816445 0.109273 0.812205
48 1 0.672106 0.854949 0.230624
49 2 0.127404 0.260109 0.375217
50 2 0.871908 0.691433 0.537725
51 2 0.13226 0.650823 0.983928
52 2 0.381684 0.304458 0.0489884
53 2 0.890525 0.838878 0.0571848
54 2 0.100473 0.115629 0.00602563
55 2 0.373102 0.197779 0.535816
56 2 0.11511 0.870312 0.464955
57 2 0.628903 0.322953 0.448974
58 2 0.364253 0.609149 0.506679
59 2 0.620824 0.729938 0.920397
60 2 0.880158 0.306403 0.107652
61 2 0.386311 0.760442 0.0854603
62 2 0.619461 0.111462 0.969521
63 2 0.884452 0.224099 0.631965
64 2 0.680674 0.989887 0.498618
65 2 0.110009 0.353609 0.489715
66 2 0.900009 0.578529 0.47863
67 2 0.180925 0.569396 0.988451
68 2 0.35635 0.424845 0.992461
69 2 0.933445 0.906744 0.967921
70 2 0.0528374 0.0370425 0.963896
71 2 0.340393 0.0839885 0.483984
72 2 0.16498 0.956348 0.466632
73 2 0.593677 0.417492 0.516542
74 2 0.412725 0.516795 0.489951
75 2 0.641837 0.62802 0.0233584
76 2 0.855934 0.386817 0.00628883
77 2 0.403587 0.876888 0.00386105
78 2 0.561609 0.0412822 0.922806
79 2 0.863705 0.136791 0.523093
80 2 0.726394 0.971932 0.397115
81 2 0.983204 0.247809 0.284945
82 2 0.0107866 0.753437 0.669598
83 2 0.258914 0.791597 0.814583
84 2 0.242451 0.22851 0.137126
85 2 0.0143665 0.754615 0.226958
86 2 0.982895 0.295895 0.832159
87 2 0.233446 0.25327 0.687482
88 2 0.241236 0.708525 0.31429
89 2 0.490376 0.241076 0.314362
90 2 0.480843 0.791528 0.636767
91 2 0.769332 0.749615 0.833735
92 2 0.748381 0.222339 0.209847
93 2 0.528078 0.755593 0.198584
94 2 0.498745 0.266353 0.77921
95 2 0.734938 0.285014 0.677197
96 2 0.763647 0.70571 0.379499
97 2 0.0407025 0.183341 0.242055
98 2 0.952387 0.821407 0.691709
99 2 0.197795 0.819309 0.767909
100 2 0.302296 0.183401 0.169207
101 2 0.954759 0.697921 0.23963
102 2 0.0475036 0.320195 0.80615
103 2 0.285131 0.32863 0.707558
104 2 0.178246 0.707049 0.278649
105 2 0.548633 0.178904 0.27433
106 2 0.421934 0.803085 0.673509
107 2 0.71462 0.815049 0.782877
108 2 0.8103 0.204627 0.259269
109 2 0.474078 0.665453 0.215083
110 2 0.56224 0.277291 0.742559
111 2 0.794745 0.332213 0.729166
112 2 0.698934 0.680705 0.377792
113 2 0.11222 0.333163 0.139804
114 2 0.878184 0.672831 0.814915
115 2 0.153424 0.613447 0.631953
116 2 0.363415 0.296412 0.321885
117 2 0.880941 0.876153 0.285429
118 2 0.108204 0.196006 0.682891
119 2 0.366734 0.184762 0.814053
120 2 0.155799 0.909634 0.114681
121 2 0.615216 0.340581 0.172184
122 2 0.376497 0.649935 0.813313
123 2 0.639434 0.678431 0.689118
124 2 0.822271 0.498719 0.362047
125 2 0.392874 0.807378 0.340796
126 2 0.587452 0.0422946 0.607677
127 2 0.8388 0.148283 0.885581
128 2 0.639483 0.796749 0.237741
129 2 0.0875929 0.469578 0.133207
130 2 0.907795 0.548453 0.84979
131 2 0.196376 0.508883 0.672023
132 2 0.341352 0.423389 0.373042
133 2 0.914677 0.994754 0.339279
134 2 0.0763253 0.0697759 0.639814
135 2 0.345804 0.0573872 0.854529
136 2 0.194277 0.0116735 0.172098
137 2 0.580049 0.467165 0.140351
138 2 0.41387 0.539095 0.850816
139 2 0.657739 0.539737 0.663974
140 2 0.786867 0.52755 0.231788
141 2 0.417913 0.93542 0.368667
142 2 0.55035 0.962795 0.693283
143 2 0.805652 0.0306565 0.854555
144 2 0.668825 0.889764 0.140203
145 3 0.110897 0.415341 0.305498
146 3 0.884443 0.578089 0.66755
147 3 0.147521 0.572946 0.815074
148 3 0.364569 0.413427 0.182793
149 3 0.92005 0.969122 0.149008
150 3 0.0972702 0.0812744 0.820701
151 3 0.356724 0.0770717 0.66572
152 3 0.139539 0.946181 0.29499
153 3 0.605717 0.439167 0.325466
154 3 0.38631 0.539689 0.667533
155 3 0.63815 0.582946 0.839926
156 3 0.853144 0.446429 0.193239
157 3 0.401945 0.910534 0.190044
158 3 0.609022 0.0451485 0.788316
159 3 0.850475 0.0866355 0.707485
160 3 0.65926 0.938506 0.320504
161 3 0.0487677 0.273276 0.398163
162 3 0.948388 0.702944 0.561399
163 3 0.202712 0.72008 0.920078
164 3 0.302851 0.30675 0.0501137
165 3 0.961015 0.786944 0.0929549
166 3 0.033784 0.204174 0.940165
167 3 0.293846 0.20513 0.570142
168 3 0.185914 0.799943 0.421336
169 3 0.552069 0.288924 0.422612
170 3 0.435636 0.677159 0.540414
171 3 0.69988 0.721495 0.930708
172 3 0.804008 0.281623 0.0954569
173 3 0.46217 0.776189 0.0890329
174 3 0.558524 0.20396 0.893029
175 3 0.803773 0.236314 0.591317
176 3 0.714544 0.825237 0.465421
177 3 0.0368347 0.346113 0.182859
178 3 0.959377 0.669069 0.784336
179 3 0.220949 0.668056 0.703516
180 3 0.288275 0.318546 0.272469
181 3 0.959538 0.856552 0.314856
182 3 0.0267783 0.186314 0.71654
183 3 0.289921 0.176855 0.793259
184 3 0.217179 0.848575 0.212673
185 3 0.536592 0.34298 0.204499
186 3 0.451389 0.674756 0.765295
187 3 0.715555 0.656702 0.721393
188 3 0.778775 0.364776 0.299249
189 3 0.471982 0.822921 0.310272
190 3 0.527853 0.125375 0.695329
191 3 0.768882 0.172232 0.791766
192 3 0.719604 0.792003 0.243415
193 3 0.105312 0.533187 0.350582
194 3 0.888226 0.454141 0.662599
195 3 0.139631 0.452008 0.837181
196 3 0.367158 0.537509 0.173188
197 3 0.871165 0.0216032 0.117208
198 3 0.105056 0.95861 0.807903
199 3 0.349988 0.951639 0.656261
200 3 0.121765 0.0648305 0.298723
201 3 0.605489 0.562533 0.352073
202 3 0.388371 0.416897 0.680562
203 3 0.645102 0.463282 0.877375
204 3 0.867023 0.555495 0.142563
205 3 0.406388 0.0342957 0.171504
206 3 0.620611 0.925879 0.815245
207 3 0.861296 0.964896 0.676569
208 3 0.658751 0.0531879 0.264878
209 3 0.0122262 0.328935 0.48084
210 3 0.989094 0.648422 0.48954
211 3 0.242395 0.697357 0.0126583
212 3 0.26531 0.380763 0.985429
213 3 0.00889114 0.803326 0.0212589
214 3 0.989137 0.165536 0.0110602
215 3 0.253101 0.143453 0.504951
216 3 0.226922 0.833337 0.508557
217 3 0.508732 0.326685 0.498853
218 3 0.481385 0.635655 0.476897
219 3 0.732649 0.67131 0.022944
220 3 0.764273 0.326779 0.0121945
221 3 0.495344 0.835973 0.0028006
222 3 0.517284 0.193887 0.984209
223 3 0.773773 0.184433 0.492085
224 3 0.761487 0.849217 0.536027
225 3 0.999398 0.439207 0.191464
226 3 0.998893 0.582487 0.791099
227 3 0.271011 0.606651 0.692751
228 3 0.248289 0.405595 0.292866
229 3 0.00109027 0.93725 0.347222
230 3 0.985051 0.101775 0.700707
231 3 0.252644 0.0866252 0.818098
232 3 0.268302 0.903646 0.220059
233 3 0.501342 0.43883 0.213297
234 3 0.500172 0.610762 0.777138
235 3 0.750892 0.560273 0.730518
236 3 0.72519 0.399785 0.305458
237 3 0.504709 0.926448 0.313476
238 3 0.477021 0.0681431 0.710769
239 3 0.725002 0.091689 0.778661
240 3 0.763786 0.868078 0.222816
241 4 0.0997224 0.611899 0.276845
242 4 0.894042 0.397529 0.757511
243 4 0.152532 0.382621 0.756747
244 4 0.377273 0.595632 0.266191
245 4 0.854644 0.0982581 0.184437
246 4 0.0947424 0.907132 0.710701
247 4 0.354052 0.897266 0.753835
248 4 0.126145 0.118903 0.202463
249 4 0.6033 0.623087 0.259095
250 4 0.400299 0.374597 0.781322
251 4 0.651573 0.38574 0.799683
252 4 0.858314 0.643875 0.202755
253 4 0.403466 0.0997746 0.261619
254 4 0.621644 0.857121 0.728922
255 4 0.854067 0.891282 0.75725
256 4 0.650685 0.0641764 0.15339
257 4 0.116765 0.553071 0.459608
258 4 0.873956 0.405307 0.565632
259 4 0.119628 0.424975 0.938236
260 4 0.3705 0.583623 0.0712078
261 4 0.851134 0.00366858 0.0125042
262 4 0.122597 0.908349 0.900238
263 4 0.353973 0.90223 0.555371
264 4 0.114512 0.109349 0.400897
265 4 0.627447 0.598134 0.447058
266 4 0.374529 0.353033 0.593734
267 4 0.640293 0.438303 0.987
268 4 0.882405 0.562496 0.0346844
269 4 0.404868 0.0674337 0.0629087
270 4 0.628304 0.895946 0.924596
271 4 0.877411 0.938942 0.573025
272 4 0.64655 0.131748 0.338681
273 4 0.964853 0.318091 0.459435
274 4 0.0343515 0.687063 0.495144
275 4 0.287597 0.738302 0.00122055
276 4 0.223559 0.402192 0.0367109
277 4 0.0485374 0.757336 0.0646997
278 4 0.947082 0.216119 0.0085461
279 4 0.208165 0.144364 0.54865
280 4 0.269349 0.782833 0.499653
281 4 0.465351 0.285007 0.475644
282 4 0.521243 0.695165 0.46339
283 4 0.780954 0.665106 0.00856988
284 4 0.720573 0.28196 0.00854758
285 4 0.542624 0.812542 0.00849466
286 4 0.481968 0.266711 0.975902
287 4 0.72808 0.218232 0.475116
288 4 0.802261 0.800301 0.502828
289 4 0.0293032 0.376998 0.574136
290 4 0.979933 0.555959 0.438682
291 4 0.229621 0.644595 0.104653
292 4 0.271193 0.401697 0.875866
293 4 0.00767875 0.870354 0.933154
294 4 0.9951 0.0801225 0.0766883
295 4 0.261778 0.0953307 0.406288
296 4 0.218069 0.909083 0.586579
297 4 0.514328 0.383294 0.594549
298 4 0.482779 0.532236 0.449502
299 4 0.712888 0.627338 0.114147
300 4 0.773183 0.413012 0.949663
301 4 0.478009 0.889904 0.913156
302 4 0.523715 0.140111 0.0818786
303 4 0.790431 0.100044 0.434865
304 4 0.759868 0.907868 0.63152
305 4 0.952983 0.417776 0.214546
306 4 0.0447042 0.607035 0.759528
307 4 0.310158 0.645791 0.744724
308 4 0.20268 0.377843 0.294128
309 4 0.0411848 0.935189 0.284025
310 4 0.93798 0.130561 0.715275
311 4 0.20656 0.108758 0.799035
312 4 0.310901 0.861346 0.245393
313 4 0.454323 0.415368 0.230702
314 4 0.539508 0.64576 0.724235
315 4 0.795426 0.571546 0.772668
316 4 0.693946 0.351224 0.233578
317 4 0.549215 0.920622 0.267253
318 4 0.443221 0.113419 0.774558
319 4 0.687115 0.114783 0.712805
320 4 0.808621 0.838486 0.252456
321 4 0.0142594 0.537248 0.166493
322 4 0.987805 0.485072 0.822232
323 4 0.271674 0.523197 0.623848
324 4 0.261612 0.494016 0.350299
325 4 0.993672 0.0139886 0.424779
326 4 0.996247 0.00102002 0.685443
327 4 0.268943 0.995264 0.863519
328 4 0.268739 0.004761 0.184732
329 4 0.512407 0.52841 0.157961
330 4 0.502077 0.522437 0.839708
331 4 0.739344 0.471279 0.672677
332 4 0.711333 0.477329 0.376802
333 4 0.490132 0.0113531 0.370724
334 4 0.462851 0.995578 0.633024
335 4 0.72516 0.00277566 0.842134
336 4 0.75647 0.959451 0.168581
ITEM: TIMESTEP
2000
ITEM: NUMBER OF ATOMS
336
ITEM: BOX BOUNDS xy xz yz pp pp pp
-5.3553834370936682e-01 2.6628620112960657e+01 -4.7658255535591937e-01
-1.7481700952282253e-01 1.1797780988405389e+01 2.0566400420726827e-01
-6.2659084419315114e-01 1.1335590477993129e+01 4.8963620282553418e-02
ITEM: ATOMS id type xs ys zs
1 1 0.109683 0.311199 0.381096
2 1 0.896969 0.721597 0.630027
3 1 0.140435 0.691528 0.878259
4 1 0.372586 0.33225 0.109514
5 1 0.946294 0.840875 0.0821232
6 1 0.101975 0.192754 0.901911
7 1 0.341261 0.17578 0.599995
8 1 0.140249 0.840515 0.323102
9 1 0.607664 0.347032 0.402703
10 1 0.372897 0.660327 0.654054
11 1 0.629514 0.632243 0.904312
12 1 0.861451 0.330166 0.11085
13 1 0.387863 0.83098 0.12779
14 1 0.598783 0.153363 0.879785
15 1 0.859057 0.179547 0.682228
16 1 0.644655 0.876079 0.41898
17 1 0.0425676 0.253001 0.246883
18 1 0.972704 0.753715 0.752515
19 1 0.216165 0.746877 0.757962
20 1 0.304955 0.241455 0.224634
21 1 0.97831 0.769253 0.263831
22 1 0.0361158 0.256761 0.773316
23 1 0.2838 0.245226 0.750351
24 1 0.223901 0.758218 0.255277
25 1 0.549957 0.269961 0.248436
26 1 0.455948 0.730793 0.721033
27 1 0.700029 0.725024 0.802004
28 1 0.786377 0.254627 0.230422
29 1 0.462465 0.765302 0.243786
30 1 0.522008 0.239791 0.789998
31 1 0.770665 0.249051 0.721764
32 1 0.706035 0.759129 0.305503
33 1 0.103729 0.412863 0.194305
34 1 0.903996 0.608663 0.808329
35 1 0.152301 0.587344 0.694309
36 1 0.357958 0.40267 0.307053
37 1 0.919481 0.930298 0.261057
38 1 0.0984566 0.122093 0.697508
39 1 0.34208 0.0876587 0.793414
40 1 0.180648 0.895701 0.141351
41 1 0.606464 0.450435 0.215456
42 1 0.407448 0.587667 0.832569
43 1 0.647269 0.574744 0.705928
44 1 0.843477 0.40804 0.306874
45 1 0.414091 0.939507 0.305446
46 1 0.575867 0.107831 0.678231
47 1 0.807019 0.088309 0.839971
48 1 0.650483 0.892553 0.208743
49 2 0.136581 0.253822 0.350613
50 2 0.872409 0.783575 0.665035
51 2 0.112796 0.758876 0.85727
52 2 0.403324 0.271313 0.128211
53 2 0.90884 0.805085 0.0581255
54 2 0.129723 0.26464 0.891805
55 2 0.37384 0.23672 0.599947
56 2 0.112506 0.774867 0.285357
57 2 0.642994 0.301489 0.390364
58 2 0.348734 0.719548 0.698476
59 2 0.595659 0.686333 0.895814
60 2 0.889932 0.266695 0.125893
61 2 0.351426 0.782155 0.152922
62 2 0.630115 0.219358 0.85472
63 2 0.882936 0.242906 0.72917
64 2 0.61089 0.823589 0.427394
65 2 0.117817 0.325522 0.471365
66 2 0.884424 0.712954 0.544944
67 2 0.122607 0.67425 0.961158
68 2 0.385436 0.371919 0.0258085
69 2 0.962668 0.869329 0.000964199
70 2 0.108499 0.160985 0.986759
71 2 0.342646 0.154587 0.509648
72 2 0.120244 0.861316 0.400955
73 2 0.607132 0.360724 0.495671
74 2 0.350861 0.641806 0.578198
75 2 0.618556 0.591302 0.983477
76 2 0.867641 0.363502 0.0251205
77 2 0.381062 0.845826 0.0349501
78 2 0.609902 0.113128 0.957721
79 2 0.885074 0.153979 0.612754
80 2 0.644803 0.930085 0.493058
81 2 0.00320761 0.222079 0.235785
82 2 0.0134045 0.770776 0.747189
83 2 0.256292 0.769165 0.760389
84 2 0.264413 0.21803 0.225804
85 2 0.0148228 0.737903 0.295979
86 2 0.994235 0.270261 0.7711
87 2 0.246665 0.279902 0.769072
88 2 0.261176 0.740175 0.287671
89 2 0.510615 0.251355 0.242896
90 2 0.493951 0.737497 0.68638
91 2 0.737492 0.764146 0.805302
92 2 0.746122 0.226627 0.223949
93 2 0.502149 0.730439 0.240084
94 2 0.484759 0.251726 0.819232
95 2 0.736859 0.258308 0.669538
96 2 0.745144 0.729256 0.303499
97 2 0.0648484 0.183316 0.206252
98 2 0.961239 0.824864 0.803031
99 2 0.204666 0.828555 0.720837
100 2 0.322897 0.166221 0.253815
101 2 0.951889 0.698408 0.291685
102 2 0.0564277 0.336353 0.74982
103 2 0.308012 0.317106 0.779198
104 2 0.214048 0.677709 0.209989
105 2 0.567274 0.197998 0.205735
106 2 0.453393 0.812019 0.763156
107 2 0.676386 0.79614 0.773851
108 2 0.798854 0.177717 0.276623
109 2 0.443838 0.692374 0.292495
110 2 0.534681 0.323449 0.757417
111 2 0.770313 0.334609 0.762971
112 2 0.686907 0.67858 0.280811
113 2 0.132355 0.374323 0.141286
114 2 0.885413 0.671248 0.861545
115 2 0.12586 0.627594 0.636166
116 2 0.390129 0.365613 0.354892
117 2 0.883599 0.883226 0.273436
118 2 0.125572 0.171407 0.645018
119 2 0.375377 0.121156 0.842911
120 2 0.161896 0.832577 0.0849607
121 2 0.640092 0.422198 0.166518
122 2 0.385467 0.64118 0.892385
123 2 0.618374 0.627783 0.665688
124 2 0.865778 0.361219 0.364523
125 2 0.385423 0.914635 0.369966
126 2 0.598509 0.172838 0.631162
127 2 0.818833 0.118634 0.924352
128 2 0.621115 0.831261 0.173636
129 2 0.103642 0.501315 0.162885
130 2 0.897663 0.525983 0.84924
131 2 0.1533 0.494339 0.668152
132 2 0.349552 0.488095 0.347239
133 2 0.909271 0.0135673 0.302538
134 2 0.100447 0.0412277 0.650597
135 2 0.334136 0.000189393 0.825653
136 2 0.187487 0.959367 0.0721653
137 2 0.605656 0.539248 0.186788
138 2 0.411749 0.510257 0.880199
139 2 0.651562 0.503102 0.648832
140 2 0.843186 0.488255 0.354755
141 2 0.424339 0.0251419 0.322529
142 2 0.570405 0.0320519 0.624223
143 2 0.794307 0.99863 0.860557
144 2 0.652772 0.956073 0.138738
145 3 0.124169 0.410396 0.310573
146 3 0.880416 0.618545 0.696383
147 3 0.128127 0.590057 0.808256
148 3 0.379849 0.424522 0.190786
149 3 0.932666 0.948628 0.138991
150 3 0.119178 0.114336 0.814586
151 3 0.358486 0.0835113 0.672473
152 3 0.141957 0.922925 0.228921
153 3 0.620787 0.450992 0.338845
154 3 0.373987 0.563718 0.73277
155 3 0.621688 0.545574 0.815146
156 3 0.872978 0.418486 0.199457
157 3 0.383599 0.930394 0.200432
158 3 0.606139 0.0799503 0.778492
159 3 0.8529 0.0855297 0.761938
160 3 0.631022 0.937903 0.316647
161 3 0.0596899 0.24667 0.365223
162 3 0.949798 0.770317 0.639882
163 3 0.194327 0.744798 0.873229
164 3 0.32354 0.267241 0.108438
165 3 0.979044 0.760418 0.139208
166 3 0.049878 0.240259 0.892582
167 3 0.295419 0.241127 0.627112
168 3 0.18474 0.771259 0.349415
169 3 0.566097 0.26558 0.366557
170 3 0.420058 0.733306 0.627496
171 3 0.678682 0.698661 0.915561
172 3 0.812873 0.269327 0.11879
173 3 0.43442 0.761063 0.136815
174 3 0.552922 0.216693 0.895323
175 3 0.814965 0.246882 0.644663
176 3 0.685541 0.79108 0.416656
177 3 0.0534004 0.355218 0.175589
178 3 0.957797 0.654001 0.821948
179 3 0.201362 0.649727 0.679272
180 3 0.311875 0.326449 0.316116
181 3 0.958049 0.867873 0.323994
182 3 0.0475046 0.171284 0.686578
183 3 0.29703 0.153643 0.828015
184 3 0.22911 0.84392 0.165072
185 3 0.56284 0.375784 0.182666
186 3 0.45724 0.647521 0.817541
187 3 0.6959 0.643151 0.708128
188 3 0.790918 0.352238 0.309547
189 3 0.458042 0.863533 0.319074
190 3 0.52614 0.163905 0.691261
191 3 0.76306 0.153222 0.801615
192 3 0.698604 0.83179 0.203984
193 3 0.117149 0.52367 0.369868
194 3 0.877256 0.510503 0.62736
195 3 0.135317 0.480469 0.872719
196 3 0.366558 0.536616 0.136863
197 3 0.890911 0.0059772 0.0786181
198 3 0.119402 0.99699 0.865256
199 3 0.34577 0.968103 0.622969
200 3 0.151734 0.0409087 0.272284
201 3 0.597221 0.551083 0.393991
202 3 0.387853 0.457168 0.671108
203 3 0.633207 0.427076 0.853062
204 3 0.865424 0.535155 0.152346
205 3 0.391555 0.0405894 0.134258
206 3 0.589241 0.962189 0.816633
207 3 0.859075 0.971249 0.708059
208 3 0.647432 0.0638932 0.32522
209 3 0.0199603 0.294685 0.440701
210 3 0.983146 0.715923 0.552893
211 3 0.230677 0.682165 0.945827
212 3 0.284039 0.316643 0.0307919
213 3 0.0314723 0.764251 0.0847899
214 3 0.00844601 0.172066 0.953994
215 3 0.251076 0.183661 0.570385
216 3 0.209945 0.818284 0.451562