LAMMPS data file via write_data, version 15 Apr 2020, timestep = 80000

336 atoms
4 atom types

-7.6117306236731785e-01 2.7125173382767471e+01 xlo xhi
4.7208481905741895e-01 1.1101915539542283e+01 ylo yhi
-8.1267007698696414e-01 1.1521669710787124e+01 zlo zhi
6.6055863151037841e-01 -5.6976884261175120e-01 -4.7079383899194256e-02 xy xz yz

Masses

1 12.0107
2 1.00794
3 14.0067
4 15.9994

Atoms # full

1 1 1 5.6622497868922393e-02 2.7170734780501480e+00 3.9047592549724919e+00 3.9902793497978450e+00 0 0 0
2 1 1 4.8508301634364072e-02 2.3501958651388712e+01 8.4271054152786924e+00 6.4471450564928050e+00 0 0 0
3 1 1 3.9513760905823106e-02 2.0614723109515993e+00 7.1034133531476398e+00 9.3935107718798747e+00 0 0 0
4 1 1 6.4016456442674910e-02 1.0627030574809293e+01 3.5478374021954728e+00 9.7926050140562282e-01 0 0 0
5 1 1 5.9003394576711339e-02 2.7298759475746937e+01 9.4253836747093978e+00 3.4088847074920570e-01 0 0 0
6 1 1 4.0309496644535987e-02 1.3824722113035981e-01 1.8519263332057474e+00 7.1342070935158475e+00 0 0 0
7 1 1 6.6445297303657780e-02 6.1109479464576770e+00 2.0207454567693945e+00 7.1719106517433620e+00 0 0 0
8 1 1 6.0272619354725568e-02 6.3478330480819558e+00 8.9793818620466013e+00 3.7992019123255565e+00 0 0 0
9 1 1 7.2290756604362766e-02 1.6956390552977581e+01 3.8702996493770949e+00 3.6675230567721959e+00 0 0 0
10 1 1 4.5597703626568668e-02 9.6094569180576546e+00 7.1109739081836096e+00 6.9117088042751105e+00 0 0 0
11 1 1 5.6184340612824367e-02 1.6466850002630629e+01 7.8426560450911760e+00 9.6752544178361646e+00 0 0 0
12 1 1 6.2430629241118259e-02 2.3773604567376566e+01 4.3410868883940115e+00 6.6188249983320180e-01 0 0 0
13 1 1 6.7723404070160934e-02 1.2312314932820474e+01 9.1650083619495817e+00 3.2695591878166130e+00 0 0 0
14 1 1 4.6351228284242638e-02 1.2567833075077942e+01 3.0242585286484918e+00 9.7917550918979401e+00 0 0 0
15 1 1 6.3710656963759146e-02 2.1544679774468008e+01 2.0569070481264866e+00 9.7296379168341822e+00 0 0 0
16 1 1 4.4020584964113110e-02 2.0323826788224537e+01 8.1486992194944516e+00 2.8268685961630009e+00 0 0 0
17 1 1 6.9951790460823143e-02 1.6535966498992276e+00 2.8059003335445731e+00 1.9294155927511580e+00 0 0 0
18 1 1 2.9644634450674692e-02 2.5237347667769289e+01 9.0009525641925912e+00 8.2441634735074487e+00 0 0 0
19 1 1 6.2555716314832949e-02 4.2044509930326583e+00 8.5061542106018670e+00 9.5178280184224278e+00 0 0 0
20 1 1 5.2225230214180240e-02 8.6316731495336398e+00 2.2179093335614706e+00 1.4385267140536557e+00 0 0 0
21 1 1 5.5298411542767961e-02 5.3833218537032224e-01 8.5290224034424931e+00 2.3804873743975059e+00 1 0 0
22 1 1 4.8778344549726099e-02 -1.0326750244698979e-01 2.4998565647679594e+00 9.5233090784027894e+00 0 0 0
23 1 1 3.6375257572020980e-02 4.8021970879126075e+00 3.1932399785198564e+00 8.9168189316254711e+00 0 0 0
24 1 1 7.2839785072762883e-02 7.6638105558843490e+00 7.9073951993626395e+00 2.0020791769331487e+00 0 0 0
25 1 1 5.1549714497082816e-02 1.5243012062843620e+01 2.7082375831558094e+00 2.3162795640021012e+00 0 0 0
26 1 1 5.4754371279147368e-02 1.0892594642284889e+01 8.4360075669032248e+00 8.6685085514323248e+00 0 0 0
27 1 1 7.3840937246740318e-02 1.7939523672739764e+01 8.6738059602157946e+00 7.8671352733456414e+00 0 0 0
28 1 1 6.1698546433985688e-02 2.2432464680699159e+01 3.7412830809354363e+00 2.7060265778316994e+00 0 0 0
29 1 1 3.4374543109674881e-02 1.3273942259045102e+01 8.3488192069546656e+00 1.0776032041991459e+00 0 0 0
30 1 1 4.9563424798299116e-02 1.1987117993462297e+01 1.9584165971921919e+00 7.4523602130524091e+00 0 0 0
31 1 1 4.9325641527754274e-02 2.0521963231878203e+01 3.5755402051893044e+00 8.0393605758778186e+00 0 0 0
32 1 1 4.7305249870056729e-02 2.1530812407523229e+01 9.6771327060940706e+00 1.1343949281642640e+00 0 0 0
33 1 1 5.1687133713847214e-02 3.6816854839494466e+00 4.2866057731351859e+00 1.6008341265108097e+00 0 0 0
34 1 1 5.0502398351158606e-02 2.3085576232817544e+01 7.7598202547827837e+00 8.8521378205766581e+00 0 0 0
35 1 1 5.6548870508807123e-02 3.1334571331680356e+00 7.9114340125020384e+00 7.2804579181827043e+00 0 0 0
36 1 1 5.6762791435899337e-02 9.8941281413646678e+00 3.3071032868507215e+00 3.4522431884950118e+00 0 0 0
37 1 1 4.8399940353111195e-02 2.6593483826957566e+01 1.0137640163474121e+01 2.7003463619412087e+00 0 0 0
38 1 1 3.0539924014766830e-02 2.6298663164155752e+01 3.6076593464771420e+00 7.8100871315477649e+00 -1 0 0
39 1 1 5.6313882693809429e-02 6.6873004672523955e+00 1.6225137166074624e+00 9.5911123901354465e+00 0 0 0
40 1 1 4.1449012375532251e-02 5.4712044019964070e+00 9.2258842080754668e+00 1.4678283935680221e+00 0 0 0
41 1 1 5.0070490592657238e-02 1.6791375012016417e+01 4.3316114321678985e+00 1.1270577688890697e+00 0 0 0
42 1 1 6.7672032519003153e-02 9.1322845384204072e+00 6.7762626304253333e+00 9.4061863102762722e+00 0 0 0
43 1 1 5.0240235409603484e-02 1.6106238803845706e+01 6.9740220794029719e+00 7.3937272309027184e+00 0 0 0
44 1 1 4.8078746660311797e-02 2.4603482020388732e+01 5.1108622374152857e+00 2.9683608802020114e+00 0 0 0
45 1 1 4.1297317990606902e-02 1.4787860141235129e+01 8.4916136442335706e+00 3.1723236694560493e+00 0 0 0
46 1 1 6.4495762797583900e-02 1.4400987770434455e+01 1.8156886789491835e+00 8.3904783462893668e+00 0 0 0
47 1 1 5.1561384326772694e-02 1.9002460485481400e+01 2.5857817406310608e+00 9.7995950084204431e+00 0 0 0
48 1 1 5.1039028322439978e-02 1.8957367976876316e+01 9.5544662876233204e+00 1.2698289416586355e+00 0 0 0
49 1 2 2.7182935304633105e-01 3.3320295510310611e+00 3.1120944513800106e+00 4.4291459558790942e+00 0 0 0
50 1 2 2.9100225934584040e-01 2.2855431135614904e+01 9.3825559010911981e+00 6.4999439270757549e+00 0 0 0
51 1 2 2.5529978110939255e-01 1.3096567677694426e+00 7.8997686599478181e+00 9.5864048515586973e+00 0 0 0
52 1 2 2.5640174599598931e-01 1.1445994573462732e+01 2.7845668934504206e+00 8.6012033982794378e-01 0 0 0
53 1 2 2.5440145846078233e-01 2.6685988664376403e+01 8.5804558296796571e+00 -6.7108071667386859e-02 0 0 0
54 1 2 2.4486321296879693e-01 9.0787530826871254e-01 2.5507386546776183e+00 6.8317549000886020e+00 0 0 0
55 1 2 2.4732572308881340e-01 6.7596842000336661e+00 2.8931870654811132e+00 6.8614868459947678e+00 0 0 0
56 1 2 2.3141596014616175e-01 5.6859950415784279e+00 8.1713615959016757e+00 4.2225459734610915e+00 0 0 0
57 1 2 2.4972865787228837e-01 1.7687484089422078e+01 3.0107441360232277e+00 3.6490593465357133e+00 0 0 0
58 1 2 2.7264610480020995e-01 8.8556170121374045e+00 7.8078051662563013e+00 6.5826257602553886e+00 0 0 0
59 1 2 2.5702215416332691e-01 1.5786770932115529e+01 8.7972418094715366e+00 9.8253212557181904e+00 0 0 0
60 1 2 2.3932327816587079e-01 2.4358412401758308e+01 3.3698075940158216e+00 6.1828369228730118e-01 0 0 0
61 1 2 2.4454868111986677e-01 1.1827952937682587e+01 8.2254650921352876e+00 3.5636604889160202e+00 0 0 0
62 1 2 2.5925055566331490e-01 1.2860715095713404e+01 4.1070400438155463e+00 9.7656425137576974e+00 0 0 0
63 1 2 2.0958684546865369e-01 2.1881211538534725e+01 2.8740688560047398e+00 1.0457813309622615e+01 0 0 0
64 1 2 2.5592567627744095e-01 2.0385481340552943e+01 7.2756203405264506e+00 2.1506395118242820e+00 0 0 0
65 1 2 2.5742365381611049e-01 2.3914715549877221e+00 4.4444714580240312e+00 4.9173242833931239e+00 0 0 0
66 1 2 2.6479445715079036e-01 2.3424198760577518e+01 8.0766747221997885e+00 5.3852851054009028e+00 0 0 0
67 1 2 2.4887460147996016e-01 1.6422448796806437e+00 6.2624814186844535e+00 9.8416223992322500e+00 0 0 -1
68 1 2 2.6984231292801608e-01 1.1017584657811968e+01 4.3126441844703773e+00 2.4741571846548460e-01 0 0 1
69 1 2 2.5704784655098384e-01 2.7556392044539148e+01 9.9719680609040857e+00 -5.9514143871120107e-01 0 0 1
70 1 2 2.3856682774285867e-01 2.0402381740826736e-01 9.8147946959401466e-01 6.4679683166215352e+00 0 0 -1
71 1 2 2.4252512758931180e-01 5.9646777053234228e+00 1.4908002791001060e+00 6.1689855939219376e+00 0 0 0
72 1 2 2.3206123313850144e-01 6.4591118619923638e+00 9.5056103574454731e+00 4.7115946194911444e+00 0 0 0
73 1 2 2.5569698513449418e-01 1.7251819994428335e+01 4.3871802948893723e+00 4.6551608184598265e+00 0 0 0
74 1 2 2.2518229793129171e-01 9.7645005187483331e+00 6.4726106310386857e+00 6.0050381886134225e+00 0 0 0
75 1 2 2.4196048217830815e-01 1.6521876471386598e+01 7.4139842105934841e+00 1.0680400863186293e+01 0 0 -1
76 1 2 2.2403932089425022e-01 2.3814004790173204e+01 4.6257878723063026e+00 -4.2292844532893986e-01 0 0 1
77 1 2 2.6849263351183117e-01 1.1650179668414900e+01 9.9297308514228035e+00 3.7992747069743293e+00 0 0 1
78 1 2 2.3239168865246770e-01 1.2136369287381024e+01 2.8835174346604324e+00 1.0832643255852513e+01 0 0 -1
79 1 2 2.4217235868827489e-01 2.2272304119970610e+01 1.1756526254091975e+00 9.9837482388379541e+00 0 0 0
80 1 2 2.7390331577211874e-01 2.0302581960203263e+01 7.6779273271596722e+00 3.8395243782637527e+00 0 0 0
81 1 2 2.5678811767177495e-01 5.8264949058301552e-01 2.4936093682542753e+00 1.6949263889523749e+00 1 0 0
82 1 2 2.5904769429704133e-01 2.6339440913992075e+01 8.8130455582113001e+00 8.3458820864127787e+00 -1 0 0
83 1 2 2.5228437932796860e-01 5.2280146523421491e+00 8.7611867763464168e+00 9.9931339980451810e+00 0 0 0
84 1 2 2.7828556614681021e-01 7.5604508426414343e+00 2.0335504457628959e+00 1.2336365532337372e+00 0 0 0
85 1 2 2.4060986079161309e-01 1.5917143555217970e+00 8.3438325244914680e+00 2.7700226303396680e+00 0 0 0
86 1 2 2.5177304282409796e-01 -1.6762897393404486e-01 2.2148637001529137e+00 1.0584520418591026e+01 1 0 0
87 1 2 2.5312124858791218e-01 3.8300021413645320e+00 3.3971205867065213e+00 9.2529920066997278e+00 0 0 0
88 1 2 2.5370903342647044e-01 8.7542465529643945e+00 7.7260954808436137e+00 1.6953022947333669e+00 0 0 0
89 1 2 2.5113325531063818e-01 1.4187943104912705e+01 2.3012381539983950e+00 2.3516562786688588e+00 0 0 0
90 1 2 2.5729121969072766e-01 1.1903798473158499e+01 8.6662163902715470e+00 8.9284844472870688e+00 0 0 0
91 1 2 2.4334775545056972e-01 1.8990862464330757e+01 9.0214441012612561e+00 7.5876333939893348e+00 0 0 0
92 1 2 2.4190606773786344e-01 2.1403656398144811e+01 3.6619990384889145e+00 3.1462725262563764e+00 0 0 0
93 1 2 2.6000185244952700e-01 1.3278866262925900e+01 8.4385469663843651e+00 -6.7025227975102353e-02 0 0 0
94 1 2 2.3641481882173421e-01 1.1113959229537169e+01 1.2858615171467846e+00 7.1372427332989048e+00 0 0 0
95 1 2 2.7486631744383572e-01 2.0449322205642297e+01 3.9240100203540313e+00 6.9984708129914726e+00 0 0 0
96 1 2 2.4667409390782316e-01 2.2425875960023475e+01 1.0278757903465785e+01 9.2178759902555196e-01 0 0 0
97 1 2 2.6956585527806370e-01 2.2147968346265796e+00 1.8518471463867201e+00 1.9020462089504742e+00 0 0 0
98 1 2 2.4722534697609777e-01 2.5106164487556477e+01 1.0003270429424756e+01 8.5831389333202708e+00 0 0 0
99 1 2 2.6303950188064545e-01 3.7303254098804515e+00 9.5151049645828856e+00 9.5610229086571863e+00 0 0 0
100 1 2 2.5760972750665734e-01 9.0295343554702274e+00 1.1775560536956315e+00 1.4499778516620059e+00 0 0 0
101 1 2 2.5514509171377775e-01 3.1612054738790252e-02 7.5323029037499465e+00 2.4974390594586104e+00 1 0 0
102 1 2 2.6163384013542235e-01 7.5946832093057992e-01 3.1431434507254870e+00 9.4260641459413215e+00 0 0 0
103 1 2 2.4995350691831894e-01 5.3515755466674246e+00 4.1835622546068372e+00 8.8388418688425183e+00 0 0 0
104 1 2 2.4654032568687489e-01 7.0792927872731433e+00 6.9457387295885997e+00 1.9932466252209178e+00 0 0 0
105 1 2 2.4529898421971499e-01 1.5847691294054263e+01 1.8415591696880684e+00 2.0746162075014833e+00 0 0 0
106 1 2 2.7176642610308693e-01 1.0340289309577766e+01 9.3889196934538148e+00 8.7142319729492641e+00 0 0 0
107 1 2 2.3635642621652816e-01 1.7469120035858317e+01 9.6027200760899731e+00 7.5470091240037940e+00 0 0 0
108 1 2 2.5513936356391270e-01 2.2734255466246253e+01 2.6826945872068073e+00 2.8671393911638154e+00 0 0 0
109 1 2 2.7087957798101914e-01 1.3064170299155531e+01 7.2882487552542665e+00 1.2346648950820307e+00 0 0 0
110 1 2 2.2533801840317932e-01 1.2046234367651603e+01 2.6408562822734227e+00 6.6037536329783952e+00 0 0 0
111 1 2 2.4966421410979636e-01 2.0730137531144820e+01 4.4683942656542825e+00 8.6423723077684329e+00 0 0 0
112 1 2 2.4610332027780729e-01 2.1662365151710503e+01 8.8848778048186681e+00 3.4622615390796407e-01 0 0 0
113 1 2 2.7233778761066485e-01 4.6086065004177472e+00 3.6366665741972914e+00 1.3676953462700689e+00 0 0 0
114 1 2 2.5784672130089764e-01 2.2430234725954357e+01 8.5966950536413442e+00 9.0187449158626727e+00 0 0 0
115 1 2 2.3895135240886978e-01 2.4608747031224238e+00 8.8153838652950434e+00 7.0075415087781749e+00 0 0 0
116 1 2 2.3112214960638355e-01 1.0508894723657079e+01 2.4624510830048627e+00 3.8108935562668522e+00 0 0 0
117 1 2 2.6385343065371780e-01 2.5717289994849335e+01 9.5316699622024110e+00 3.0201437887079869e+00 0 0 0
118 1 2 2.3566044103656303e-01 2.6915639516506864e+01 4.4186894054782488e+00 7.5195177426883317e+00 -1 0 0
119 1 2 2.4822165535939364e-01 7.5947659516049786e+00 2.2642989433834328e+00 9.6786031685752221e+00 0 0 0
120 1 2 2.5944201535184391e-01 4.7252463410511147e+00 8.4540206984362847e+00 1.3473349024375585e+00 0 0 0
121 1 2 2.4360664277174557e-01 1.7582445030442010e+01 3.6993603281779905e+00 6.3214088783576439e-01 0 0 0
122 1 2 2.6565756072040375e-01 8.3255568541518041e+00 7.4402018143772635e+00 9.7473745891442576e+00 0 0 0
123 1 2 2.3695482216318142e-01 1.5362438989163492e+01 7.6889774822230743e+00 6.8859951314823080e+00 0 0 0
124 1 2 2.6182218697561016e-01 2.5329439097201636e+01 4.3117233661046779e+00 3.3701126674247819e+00 0 0 0
125 1 2 2.3974778306998637e-01 1.4604042725480252e+01 7.4626054457184363e+00 3.5267043943619516e+00 0 0 0
126 1 2 2.5370893304590175e-01 1.4773986448808982e+01 2.6743895933804560e+00 7.7124256459063529e+00 0 0 0
127 1 2 2.3370496573226482e-01 1.9118742016464370e+01 3.3708216419988988e+00 1.0559234465163957e+01 0 0 0
128 1 2 2.7226618887285514e-01 1.8967391982765648e+01 8.7015380920996002e+00 5.1694561984149612e-01 0 0 0
129 1 2 2.3652437600122461e-01 3.9465246949467185e+00 5.2087803263062238e+00 1.0712313871844981e+00 0 0 0
130 1 2 2.4277903920212907e-01 2.2765592417843202e+01 6.8958325874381261e+00 9.4592941480589836e+00 0 0 0
131 1 2 2.3100948929664858e-01 3.5336883565715009e+00 7.6984530160929019e+00 6.2622902856960216e+00 0 0 0
132 1 2 2.1626902186145380e-01 9.8104720187433738e+00 3.8466597516606114e+00 4.4437049261794206e+00 0 0 0
133 1 2 2.4907498251224830e-01 2.5802904985285977e+01 5.5324838234276297e-01 3.1122346134820007e+00 0 1 0
134 1 2 2.4724317963622125e-01 2.5280607756718229e+01 3.9505589965814645e+00 7.6232282797905730e+00 -1 0 0
135 1 2 2.2608950631134317e-01 7.1881984489689001e+00 9.1724054477752548e-01 1.0263056604706062e+01 0 0 0
136 1 2 2.2427796615665002e-01 5.1247081020662684e+00 9.9698940589981291e+00 7.2969224550167677e-01 0 0 0
137 1 2 2.3757306219926949e-01 1.6754754260113479e+01 5.1952696794233368e+00 4.9758143785527964e-01 0 0 0
138 1 2 2.6285240041111074e-01 8.9745292202653992e+00 5.8739014095629827e+00 1.0092785877301186e+01 0 0 0
139 1 2 2.4390421568564927e-01 1.5884908902395656e+01 6.0965500508042272e+00 6.7893276476817439e+00 0 0 0
140 1 2 2.5166649409736125e-01 2.4970322395962658e+01 6.0503493837737441e+00 3.3346277430371503e+00 0 0 0
141 1 2 2.3098630507593870e-01 1.5805260159746187e+01 8.8084280771544954e+00 3.5407761194691547e+00 0 0 0
142 1 2 2.3491084647732782e-01 1.5348481050648481e+01 1.2380382325983830e+00 8.5142854460731989e+00 0 0 0
143 1 2 2.2963083277902563e-01 1.7970899015872654e+01 2.1702149350700832e+00 9.9249389085258457e+00 0 0 0
144 1 2 2.4575820715209559e-01 1.8071459406463205e+01 1.0137669681750200e+01 1.0241457921773336e+00 0 0 0
145 1 3 -2.4751730068592007e-01 3.6590452438989525e+00 4.6333747116455894e+00 3.0670761787426870e+00 0 0 0
146 1 3 -2.8325833569609338e-01 2.2830530070335211e+01 7.4752407243171497e+00 7.4093169401286536e+00 0 0 0
147 1 3 -2.5628775395937503e-01 2.1693083277984293e+00 6.9732469667894312e+00 7.9438972576102840e+00 0 0 0
148 1 3 -2.3685726668571086e-01 1.0671429215012441e+01 4.0771409883057483e+00 2.4040282598720726e+00 0 0 0
149 1 3 -2.5193166034907183e-01 2.6515370541293233e+01 1.0362199591179799e+01 1.2049104764800065e+00 0 0 0
150 1 3 -2.6638556240742950e-01 2.6762449013753248e+01 2.5649617424996531e+00 6.8209551276040266e+00 -1 0 0
151 1 3 -2.7736555555637976e-01 6.8106150327615937e+00 1.1478668586597798e+00 8.1707550550867829e+00 0 0 0
152 1 3 -2.7219652717602982e-01 5.4270799310539317e+00 9.7281734308346337e+00 2.8880590732450075e+00 0 0 0
153 1 3 -2.9140930447495406e-01 1.7394236366961998e+01 4.6719611100192591e+00 2.4892838649612492e+00 0 0 0
154 1 3 -2.5367455137142353e-01 8.8190360325659878e+00 6.4061568009157543e+00 7.9909510672417960e+00 0 0 0
155 1 3 -2.3898573611079243e-01 1.5792033022312078e+01 6.8033206827047890e+00 8.8302719616310270e+00 0 0 0
156 1 3 -2.6801510531053147e-01 2.4634574965726593e+01 5.2493970701691524e+00 1.4612128956940453e+00 0 0 0
157 1 3 -2.7501959744189181e-01 1.3666291856672199e+01 9.1279059360859947e+00 3.9220507743805078e+00 0 0 0
158 1 3 -2.3536443531275983e-01 1.3957512603534825e+01 2.4278940294891296e+00 9.6895894954717079e+00 0 0 0
159 1 3 -3.1614139850128009e-01 2.0181103714677313e+01 1.7320295433757205e+00 1.0251248222152554e+01 0 0 0
160 1 3 -2.3392418478463220e-01 1.9012327776507622e+01 8.8084010114622728e+00 2.5627198187478495e+00 0 0 0
161 1 3 -2.6477164570190492e-01 1.5471828568869750e+00 3.2202588509990551e+00 3.3782398354698744e+00 0 0 0
162 1 3 -2.2866874962349273e-01 2.4911174089650707e+01 8.9403680668877676e+00 6.7726269812961322e+00 0 0 0
163 1 3 -2.5406346274163921e-01 3.2687337609968430e+00 7.5683654004418068e+00 1.0219838616778400e+01 0 0 0
164 1 3 -2.4626435898469129e-01 9.3886836325073499e+00 2.9473904215281372e+00 3.8243712113648232e-01 0 0 0
165 1 3 -2.5181271533654587e-01 6.3144482510328415e-01 8.7413551271887542e+00 9.1412562287120602e-01 1 0 0
166 1 3 -2.5709054604601900e-01 3.8498543687404108e-01 1.4774506184088969e+00 8.6062599996028908e+00 0 0 0
167 1 3 -2.7324755484509522e-01 4.8017926668545945e+00 2.6738101304584045e+00 7.5399846303472335e+00 0 0 0
168 1 3 -2.7134519241663091e-01 7.6605624069063545e+00 8.3752667397028873e+00 3.4076865416290794e+00 0 0 0
169 1 3 -2.7005130493642432e-01 1.5625018438458078e+01 3.1724929361987466e+00 3.6849421863794776e+00 0 0 0
170 1 3 -2.2790361464174697e-01 1.0815411069841627e+01 7.9265156219540573e+00 7.2511371085703322e+00 0 0 0
171 1 3 -2.6170536598023569e-01 1.7778998222215066e+01 8.4929530177778290e+00 9.3366324147964228e+00 0 0 0
172 1 3 -2.9669348249969663e-01 2.2456711540665175e+01 3.7974851025956182e+00 1.1979420498009570e+00 0 0 0
173 1 3 -2.3129640571590843e-01 1.2218063926505641e+01 9.1706930497148349e+00 1.7592988696923140e+00 0 0 0
174 1 3 -2.2699117734745186e-01 1.1613472998546580e+01 2.7144803593991385e+00 8.7011556037543940e+00 0 0 0
175 1 3 -2.2388209455236485e-01 2.1643207230992719e+01 2.6053211420602782e+00 8.3463240332858994e+00 0 0 0
176 1 3 -2.2853567595651691e-01 2.1551175383323333e+01 8.9111169199040177e+00 2.4334182998350791e+00 0 0 0
177 1 3 -2.3815962666424989e-01 2.4467489359675909e+00 3.6726851773335270e+00 9.9088278534057284e-01 0 0 0
178 1 3 -2.7051042708810780e-01 2.4416722786668309e+01 8.2148809240789333e+00 9.2731966445100866e+00 0 0 0
179 1 3 -2.6058893959995827e-01 4.3824979702584006e+00 8.3700418275515815e+00 8.0483919337093894e+00 0 0 0
180 1 3 -2.7305690156645779e-01 8.7036183440629653e+00 2.6173291985478011e+00 2.9259170774549550e+00 0 0 0
181 1 3 -2.3356264599836543e-01 -1.3795249066686344e-01 9.4475089533603516e+00 3.3581704968175465e+00 1 0 0
182 1 3 -2.3667724420635547e-01 2.6588278830409244e+01 3.3754210083629745e+00 9.2652977654912867e+00 -1 0 0
183 1 3 -2.0063883698742435e-01 5.4307928949180564e+00 2.3599150960877240e+00 9.9997223279591125e+00 0 0 0
184 1 3 -2.6305144177175965e-01 6.7784135621361417e+00 8.6453592494535059e+00 1.0076187743065450e+00 0 0 0
185 1 3 -2.7362463570795303e-01 1.5515949270597487e+01 3.5399218803266717e+00 1.0909218433175396e+00 0 0 0
186 1 3 -2.7357383968896587e-01 1.0313936826524872e+01 7.6072919522825746e+00 9.7852603044486948e+00 0 0 0
187 1 3 -2.5701524553437505e-01 1.7393845917111751e+01 7.6543752653540098e+00 6.9079967704021499e+00 0 0 0
188 1 3 -2.5568369954304199e-01 2.3334722553791760e+01 4.6140562840274182e+00 3.5364731078826779e+00 0 0 0
189 1 3 -2.3614782793654190e-01 1.4675083188911776e+01 8.4188431405137791e+00 1.6540783900650204e+00 0 0 0
190 1 3 -2.6264423544320886e-01 1.3354382540416255e+01 1.2834074627247847e+00 7.4798311917745250e+00 0 0 0
191 1 3 -2.5493830251073418e-01 1.9107608609969731e+01 3.2877900902660961e+00 8.4856785689046994e+00 0 0 0
192 1 3 -2.8206006872959061e-01 2.0202949757884991e+01 1.0268946172447937e+01 7.6697150926890667e-01 0 0 0
193 1 3 5.1883963683983736e-01 3.4921857971281636e+00 6.1362389705798632e+00 3.2284304562175263e+00 0 0 0
194 1 3 5.0759060624672292e-01 2.3315973727077751e+01 6.0617048723453513e+00 7.1559278793516023e+00 0 0 0
195 1 3 5.2322981461711304e-01 2.4467969077826757e+00 5.5321286627559036e+00 7.5708556089339867e+00 0 0 0
196 1 3 4.9200185680598169e-01 1.0296646330515134e+01 5.5232403115506425e+00 2.4255804368401517e+00 0 0 0
197 1 3 4.7008183493438177e-01 2.5091142109376754e+01 1.0646206138625082e+01 7.0778991413507630e-01 0 -1 0
198 1 3 4.9249546148475259e-01 2.5573035481361817e+01 1.6899100407372556e+00 6.3592132718489056e+00 -1 1 0
199 1 3 5.1730735759293500e-01 7.0112401899738224e+00 1.0327066665191197e+01 8.0382063898904939e+00 0 0 0
200 1 3 5.2098173330896247e-01 5.1843028023994968e+00 5.7457968361011780e-01 2.9338230424682465e+00 0 0 0
201 1 3 5.0750883082716847e-01 1.7290682197045250e+01 6.1524016149695511e+00 2.7741261176202161e+00 0 0 0
202 1 3 5.0277566564761467e-01 8.9819013259118989e+00 4.9012556203326811e+00 7.7782916127544235e+00 0 0 0
203 1 3 5.0143826616526554e-01 1.6246668009654925e+01 5.4298417313044123e+00 9.3311884491407149e+00 0 0 0
204 1 3 5.1785653591519243e-01 2.4584513052772781e+01 6.7368399068824667e+00 1.0939313104973565e+00 0 0 0
205 1 3 5.0523961416098617e-01 1.4009821386626523e+01 1.0480267653979222e+01 4.5921325543386216e+00 0 -1 0
206 1 3 4.3376160589460766e-01 1.4188217302373271e+01 1.3980446160456208e+00 1.0783520661748522e+01 0 1 0
207 1 3 5.1670693720764582e-01 2.0517894465473571e+01 1.0901848295434693e+01 1.0006398359094497e+01 0 0 0
208 1 3 4.7903140972064928e-01 1.8641387791143718e+01 9.7204078702480672e+00 3.7400587191019508e+00 0 -1 0
209 1 3 5.1899137349488011e-01 3.0534780192116973e-01 4.0455193573133625e+00 3.6699560561032865e+00 0 0 0
210 1 3 4.9245338400641731e-01 2.6007320451105301e+01 8.1974047602625397e+00 6.0734422870770484e+00 0 0 0
211 1 3 4.8305773583483241e-01 4.0132284969570104e+00 6.4048000301630967e+00 1.0821121654316244e+01 0 0 -1
212 1 3 5.1258314745912958e-01 8.4814295830359896e+00 4.0100251067731172e+00 -2.3665115394014546e-01 0 0 1
213 1 3 4.8147182144644612e-01 1.8002541102138379e+00 9.6500584735162178e+00 5.7231160563137440e-01 1 0 1
214 1 3 5.3280678983316276e-01 3.1798793482745968e-01 1.0791368919982386e+01 8.9821179114320699e+00 0 -1 -1
215 1 3 5.2386847873184927e-01 3.5584545318467651e+00 1.8855266755761892e+00 7.1386965851273185e+00 0 0 0
216 1 3 5.1333876305408555e-01 8.9350462866310281e+00 9.1046700064093393e+00 3.8769220596459029e+00 0 0 0
217 1 3 4.8950479648891826e-01 1.4556931653036511e+01 4.0258073166299315e+00 4.3609158934550125e+00 0 0 0
218 1 3 4.9358849382219605e-01 1.2109442689256632e+01 7.2477987200454228e+00 6.8070728289133688e+00 0 0 0
219 1 3 5.3629435220183563e-01 1.8929153310047560e+01 7.7024198282174900e+00 9.9752158673295099e+00 0 0 -1
220 1 3 5.3641516696682212e-01 2.1336903993082181e+01 4.6375589409327125e+00 6.5474610594229921e-01 0 0 1
221 1 3 5.0136012025926679e-01 1.2259957680010082e+01 1.0631715013515009e+01 1.3604790270036529e+00 0 0 1
222 1 3 4.8855186155238473e-01 1.0446664597656156e+01 1.9295253216479356e+00 9.3926117830834421e+00 0 0 -1
223 1 3 5.0673883721688973e-01 2.1748953333326540e+01 1.5515702990050002e+00 7.2624602577602202e+00 0 0 0
224 1 3 5.0664132121029759e-01 2.2106780356017193e+01 9.8006090189951607e+00 3.5451696877751724e+00 0 0 0
225 1 3 4.9169878248598842e-01 1.7033838488512145e+00 4.7894579646610351e+00 2.7836650256124740e-01 1 0 0
226 1 3 4.7070836043048514e-01 2.5322890313262594e+01 7.0743112430318495e+00 9.7411161405604823e+00 -1 0 0
227 1 3 5.2366921680372602e-01 5.6366772362027122e+00 7.5950479701373581e+00 7.7346690084129408e+00 0 0 0
228 1 3 5.3832521949068990e-01 7.4373468331872461e+00 3.3128357719774812e+00 3.4174277715438368e+00 0 0 0
229 1 3 4.7503161045466014e-01 8.3081460631160120e-01 1.0500420543907019e+01 3.8816017325579546e+00 0 0 0
230 1 3 5.1601886065298030e-01 2.5351874877236792e+01 2.8102776317994245e+00 9.9663495961985049e+00 0 0 0
231 1 3 5.2084990484602900e-01 4.3430798603280767e+00 1.3654566088582962e+00 1.0442324955610246e+01 0 0 0
232 1 3 4.9922434123360199e-01 7.5399880947701741e+00 9.7072059150632874e+00 2.6460470615698606e-01 0 0 0
233 1 3 5.1568144588009457e-01 1.4398497653492104e+01 4.5423221010010568e+00 9.5024702837376229e-01 0 0 0
234 1 3 5.1939563642381170e-01 1.1382282767987089e+01 6.6709060632623949e+00 1.0349147912386595e+01 0 0 0
235 1 3 4.9523350329403054e-01 1.8362196948495342e+01 6.5777033821226558e+00 6.5460133251701311e+00 0 0 0
236 1 3 4.9717819140757391e-01 2.2511788228110632e+01 5.8203049152340753e+00 3.9750349567357377e+00 0 0 0
237 1 3 5.0517608318400986e-01 1.5388976968432443e+01 9.5761302232484447e+00 1.0145359816721018e+00 0 0 0
238 1 3 5.3567380962198785e-01 1.3821495677638374e+01 1.0425527559860608e+01 7.6609931196251528e+00 0 -1 0
239 1 3 5.3551200923487685e-01 1.8218871953259217e+01 2.6816689285982842e+00 7.3620568867328791e+00 0 0 0
240 1 3 5.1962744908044234e-01 1.9523150294100418e+01 1.1013356956949782e+00 1.1603921047645898e+00 0 1 0
241 1 4 -4.7135696109492969e-01 4.3099270061518489e+00 6.8724448894440302e+00 2.5469372850155705e+00 0 0 0
242 1 4 -4.0086496551497020e-01 2.2698905641506443e+01 5.0757115396434553e+00 7.6835542097271512e+00 0 0 0
243 1 4 -4.1903149496655062e-01 3.4403367416132626e+00 5.2314712197023789e+00 6.7940479083154983e+00 0 0 0
244 1 4 -4.2881162615279378e-01 9.2518727212067908e+00 5.8926108036889246e+00 3.1318747472416444e+00 0 0 0
245 1 4 -4.1013689595659597e-01 2.3702528337801187e+01 8.9172044985001109e-01 1.2925291072004579e+00 0 0 0
246 1 4 -3.3320258387214674e-01 2.4881271626692641e+01 2.0975809974054931e+00 5.3379115782841060e+00 -1 1 0
247 1 4 -3.9571442056704009e-01 5.9895853755521777e+00 1.0126852005070997e+01 7.2525239590295412e+00 0 0 0
248 1 4 -4.0882402495476711e-01 4.4757441239487887e+00 1.4356935024844835e+00 2.2771457122176364e+00 0 0 0
249 1 4 -3.9496921947744190e-01 1.7502592858958046e+01 7.0432727803702582e+00 1.8551295767807070e+00 0 0 0
250 1 4 -4.1670892794153130e-01 8.2439821817711589e+00 4.0826903761882090e+00 8.4618882385176910e+00 0 0 0
251 1 4 -3.8705392670790717e-01 1.5503307095672032e+01 4.3949596976344392e+00 9.0845445248723422e+00 0 0 0
252 1 4 -3.8468235845203824e-01 2.3686588832047207e+01 7.0661362488983936e+00 2.2496242465754612e-01 0 0 0
253 1 4 -3.6949336652371761e-01 1.5189260044060296e+01 1.0662558730302699e+01 5.0776253046253474e+00 0 -1 0
254 1 4 -3.1416386993514239e-01 1.4077294441635638e+01 1.0989885804627242e+01 1.0850048470811554e+01 0 0 0
255 1 4 -4.2510990925073783e-01 2.1390550074484878e+01 9.9949070416474690e+00 1.0430531585988469e+01 0 0 0
256 1 4 -3.5904852030861201e-01 1.8487653060533319e+01 1.0988370547500615e+01 3.4791520401021785e+00 0 -1 0
257 1 4 -4.2527654571693652e-01 2.6257183387041509e+00 6.6257825852205094e+00 4.0354887381383948e+00 0 0 0
258 1 4 -3.9878325273204362e-01 2.4172636366269181e+01 5.8473822943477796e+00 6.1896955862746097e+00 0 0 0
259 1 4 -4.6839233906686784e-01 1.7224439342120845e+00 4.6573161825507361e+00 8.1625563060538084e+00 0 0 0
260 1 4 -4.0597875979580267e-01 1.0991515587065571e+01 6.3473339888378080e+00 1.7064433347392556e+00 0 0 0
261 1 4 -3.8956929529748746e-01 2.4816036038658240e+01 1.0341872392507742e+01 -5.3218315943793393e-01 0 -1 0
262 1 4 -3.9407201447403883e-01 2.5610054577004085e+01 4.5424482423887641e-01 6.7057076415856969e+00 -1 1 0
263 1 4 -4.1463321090747080e-01 7.7702911828661509e+00 9.3700706376062826e+00 8.4112017227865969e+00 0 0 0
264 1 4 -3.9905879186463505e-01 6.0647559450449515e+00 9.3416991860988130e-01 3.8056570165618799e+00 0 0 0
265 1 4 -4.2855744948521990e-01 1.6875681933736715e+01 6.5061201702169953e+00 3.9404160882990906e+00 0 0 0
266 1 4 -4.3368443251611632e-01 9.8327844454125621e+00 4.4176730449860013e+00 6.9291332882893917e+00 0 0 0
267 1 4 -4.2088005373561682e-01 1.7079144799410141e+01 5.4023199723234470e+00 1.0324058577341432e+01 0 0 0
268 1 4 -4.3561405034517758e-01 2.5466137589302377e+01 7.5713425442130449e+00 1.5573640951778986e+00 0 0 0
269 1 4 -4.1168987332067625e-01 1.2412218565022197e+01 7.2334012850261020e-01 4.7518609545108594e+00 0 0 0
270 1 4 -3.3330994984042539e-01 1.5382252074452341e+01 1.2997403797797924e+00 1.1317377208944887e+01 0 1 0
271 1 4 -4.1319312327202512e-01 1.9496655764355864e+01 1.0543987175455619e+01 9.3343361008404280e+00 0 0 0
272 1 4 -3.3403953693968846e-01 1.8470166830718817e+01 9.2660242711697371e+00 4.9331881602469103e+00 0 -1 0
273 1 4 -4.2717177344449242e-01 -6.8004256653506578e-01 3.8867884586030637e+00 2.8450443125327580e+00 1 0 0
274 1 4 -3.4927372403600920e-01 2.7075727581333673e+01 7.8428664883747210e+00 6.7469645930380189e+00 -1 0 0
275 1 4 -4.2235479322602221e-01 3.6387373374318965e+00 5.1858905741044401e+00 1.0637479827194930e+01 0 0 -1
276 1 4 -3.6518897015394097e-01 7.3327119895955537e+00 3.5611616739571086e+00 -5.9849277098431908e-01 0 0 1
277 1 4 -4.3289440399196516e-01 1.8270506024586326e+00 1.0897895646209346e+01 9.2378927545442568e-01 0 0 1
278 1 4 -4.7223951637900352e-01 -3.5488397920886716e-01 1.0821463456746429e+01 1.0085032264505642e+01 1 -1 -1
279 1 4 -4.7248642126507912e-01 2.9802381660192911e+00 2.1448327356705681e+00 6.0180043469416988e+00 0 0 0