ITEM: TIMESTEP
0
ITEM: NUMBER OF ATOMS
336
ITEM: BOX BOUNDS xy xz yz pp pp pp
0.0000000000000000e+00 2.6364000320399999e+01 0.0000000000000000e+00
0.0000000000000000e+00 1.1574000358599999e+01 0.0000000000000000e+00
0.0000000000000000e+00 1.0708999633800000e+01 0.0000000000000000e+00
ITEM: ATOMS id type xs ys zs
1 1 0.093533 0.355842 0.445797
2 1 0.906467 0.644158 0.554203
3 1 0.156467 0.644158 0.945797
4 1 0.343533 0.355842 0.0542032
5 1 0.906467 0.855842 0.0542032
6 1 0.093533 0.144158 0.945797
7 1 0.343533 0.144158 0.554203
8 1 0.156467 0.855842 0.445797
9 1 0.593533 0.355842 0.445797
10 1 0.406467 0.644158 0.554203
11 1 0.656467 0.644158 0.945797
12 1 0.843533 0.355842 0.0542032
13 1 0.406467 0.855842 0.0542032
14 1 0.593533 0.144158 0.945797
15 1 0.843533 0.144158 0.554203
16 1 0.656467 0.855842 0.445797
17 1 0.0241829 0.238223 0.339719
18 1 0.975817 0.761777 0.660281
19 1 0.225817 0.761777 0.83972
20 1 0.274183 0.238223 0.160281
21 1 0.975817 0.738223 0.160281
22 1 0.0241829 0.261777 0.83972
23 1 0.274183 0.261777 0.66028
24 1 0.225817 0.738223 0.339719
25 1 0.524183 0.238223 0.339719
26 1 0.475817 0.761777 0.66028
27 1 0.725817 0.761777 0.83972
28 1 0.774183 0.238223 0.160281
29 1 0.475817 0.738223 0.160281
30 1 0.524183 0.261777 0.83972
31 1 0.774183 0.261777 0.66028
32 1 0.725817 0.738223 0.33972
33 1 0.0754414 0.379753 0.208691
34 1 0.924559 0.620247 0.791309
35 1 0.174559 0.620247 0.708691
36 1 0.325441 0.379753 0.291309
37 1 0.924559 0.879752 0.29131
38 1 0.0754414 0.120247 0.708691
39 1 0.325441 0.120247 0.791309
40 1 0.174559 0.879753 0.208691
41 1 0.575441 0.379753 0.208691
42 1 0.424559 0.620247 0.791309
43 1 0.674559 0.620247 0.708691
44 1 0.825441 0.379753 0.29131
45 1 0.424559 0.879752 0.29131
46 1 0.575441 0.120247 0.708691
47 1 0.825441 0.120247 0.791309
48 1 0.674559 0.879753 0.208691
49 2 0.123671 0.29306 0.425065
50 2 0.876329 0.70694 0.574935
51 2 0.126329 0.70694 0.925065
52 2 0.373671 0.29306 0.0749354
53 2 0.876329 0.79306 0.0749354
54 2 0.123671 0.20694 0.925065
55 2 0.373671 0.20694 0.574935
56 2 0.126329 0.79306 0.425065
57 2 0.623671 0.29306 0.425065
58 2 0.376329 0.70694 0.574935
59 2 0.626329 0.70694 0.925065
60 2 0.873671 0.29306 0.0749354
61 2 0.376329 0.79306 0.0749354
62 2 0.623671 0.20694 0.925065
63 2 0.873671 0.20694 0.574935
64 2 0.626329 0.79306 0.425065
65 2 0.102556 0.407306 0.528824
66 2 0.897444 0.592694 0.471176
67 2 0.147444 0.592694 0.0288242
68 2 0.352556 0.407306 0.971176
69 2 0.897444 0.907306 0.971176
70 2 0.102556 0.0926944 0.0288242
71 2 0.352556 0.0926944 0.471176
72 2 0.147444 0.907306 0.528824
73 2 0.602556 0.407306 0.528824
74 2 0.397444 0.592694 0.471176
75 2 0.647444 0.592694 0.0288242
76 2 0.852556 0.407306 0.971176
77 2 0.397444 0.907306 0.971176
78 2 0.602556 0.0926944 0.0288242
79 2 0.852556 0.0926944 0.471176
80 2 0.647444 0.907306 0.528824
81 2 0.985602 0.207077 0.353964
82 2 0.0143982 0.792923 0.646036
83 2 0.264398 0.792923 0.853964
84 2 0.235602 0.207077 0.146036
85 2 0.0143982 0.707077 0.146036
86 2 0.985602 0.292923 0.853964
87 2 0.235602 0.292923 0.646036
88 2 0.264398 0.707077 0.353964
89 2 0.485602 0.207077 0.353964
90 2 0.514398 0.792923 0.646037
91 2 0.764398 0.792923 0.853964
92 2 0.735602 0.207077 0.146036
93 2 0.514398 0.707077 0.146036
94 2 0.485602 0.292923 0.853964
95 2 0.735602 0.292923 0.646037
96 2 0.764398 0.707077 0.353964
97 2 0.0497521 0.166222 0.318931
98 2 0.950248 0.833778 0.681069
99 2 0.200248 0.833778 0.818931
100 2 0.299752 0.166222 0.181069
101 2 0.950248 0.666222 0.181069
102 2 0.0497521 0.333778 0.818931
103 2 0.299752 0.333778 0.681069
104 2 0.200248 0.666222 0.318931
105 2 0.549752 0.166222 0.318931
106 2 0.450248 0.833778 0.681069
107 2 0.700248 0.833778 0.818931
108 2 0.799752 0.166222 0.181069
109 2 0.450248 0.666222 0.181069
110 2 0.549752 0.333778 0.818931
111 2 0.799752 0.333778 0.681069
112 2 0.700248 0.666222 0.318931
113 2 0.105288 0.316845 0.186979
114 2 0.894712 0.683155 0.813021
115 2 0.144712 0.683155 0.686979
116 2 0.355288 0.316845 0.313021
117 2 0.894712 0.816845 0.313021
118 2 0.105288 0.183155 0.686979
119 2 0.355288 0.183155 0.813021
120 2 0.144712 0.816845 0.186979
121 2 0.605288 0.316845 0.186979
122 2 0.394712 0.683155 0.813021
123 2 0.644712 0.683155 0.686979
124 2 0.855288 0.316845 0.313021
125 2 0.394712 0.816845 0.313021
126 2 0.605288 0.183155 0.686979
127 2 0.855288 0.183155 0.813021
128 2 0.644712 0.816845 0.186979
129 2 0.0730435 0.445638 0.135358
130 2 0.926957 0.554362 0.864642
131 2 0.176957 0.554362 0.635358
132 2 0.323043 0.445638 0.364642
133 2 0.926957 0.945638 0.364642
134 2 0.0730435 0.0543624 0.635358
135 2 0.323043 0.0543624 0.864642
136 2 0.176957 0.945638 0.135358
137 2 0.573043 0.445638 0.135358
138 2 0.426957 0.554362 0.864642
139 2 0.676957 0.554362 0.635358
140 2 0.823043 0.445638 0.364642
141 2 0.426957 0.945638 0.364642
142 2 0.573043 0.0543624 0.635358
143 2 0.823043 0.0543624 0.864642
144 2 0.676957 0.945638 0.135358
145 3 0.0881557 0.432694 0.333106
146 3 0.911844 0.567306 0.666894
147 3 0.161844 0.567306 0.833106
148 3 0.338156 0.432694 0.166894
149 3 0.911844 0.932694 0.166894
150 3 0.0881557 0.0673064 0.833106
151 3 0.338156 0.0673065 0.666894
152 3 0.161844 0.932694 0.333106
153 3 0.588156 0.432694 0.333106
154 3 0.411844 0.567306 0.666894
155 3 0.661844 0.567306 0.833106
156 3 0.838156 0.432694 0.166894
157 3 0.411844 0.932694 0.166894
158 3 0.588156 0.0673064 0.833106
159 3 0.838156 0.0673065 0.666894
160 3 0.661844 0.932694 0.333106
161 3 0.0462648 0.282168 0.461313
162 3 0.953735 0.717832 0.538687
163 3 0.203735 0.717832 0.961313
164 3 0.296265 0.282168 0.0386874
165 3 0.953735 0.782168 0.0386873
166 3 0.0462648 0.217832 0.961313
167 3 0.296265 0.217832 0.538687
168 3 0.203735 0.782168 0.461313
169 3 0.546265 0.282168 0.461313
170 3 0.453735 0.717832 0.538687
171 3 0.703735 0.717832 0.961313
172 3 0.796265 0.282168 0.0386874
173 3 0.453735 0.782168 0.0386873
174 3 0.546265 0.217832 0.961313
175 3 0.796265 0.217832 0.538687
176 3 0.703735 0.782168 0.461313
177 3 0.0273882 0.307814 0.22023
178 3 0.972612 0.692186 0.77977
179 3 0.222612 0.692186 0.72023
180 3 0.277388 0.307814 0.27977
181 3 0.972612 0.807814 0.27977
182 3 0.0273882 0.192186 0.72023
183 3 0.277388 0.192186 0.77977
184 3 0.222612 0.807814 0.22023
185 3 0.527388 0.307814 0.22023
186 3 0.472612 0.692186 0.77977
187 3 0.722612 0.692186 0.72023
188 3 0.777388 0.307814 0.27977
189 3 0.472612 0.807814 0.27977
190 3 0.527388 0.192186 0.72023
191 3 0.777388 0.192186 0.77977
192 3 0.722612 0.807814 0.22023
193 3 0.115702 0.547585 0.334703
194 3 0.884298 0.452415 0.665297
195 3 0.134298 0.452415 0.834703
196 3 0.365702 0.547585 0.165297
197 3 0.884298 0.0475854 0.165297
198 3 0.115702 0.952415 0.834703
199 3 0.365702 0.952415 0.665297
200 3 0.134298 0.0475853 0.334703
201 3 0.615702 0.547585 0.334703
202 3 0.384298 0.452415 0.665297
203 3 0.634298 0.452415 0.834703
204 3 0.865702 0.547585 0.165297
205 3 0.384298 0.0475854 0.165297
206 3 0.615702 0.952415 0.834703
207 3 0.865702 0.952415 0.665297
208 3 0.634298 0.0475853 0.334703
209 3 0.00590059 0.353427 0.532538
210 3 0.994099 0.646573 0.467462
211 3 0.244099 0.646573 0.0325378
212 3 0.255901 0.353427 0.967462
213 3 0.994099 0.853427 0.967462
214 3 0.00590059 0.146573 0.0325378
215 3 0.255901 0.146573 0.467462
216 3 0.244099 0.853427 0.532538
217 3 0.505901 0.353427 0.532538
218 3 0.494099 0.646573 0.467462
219 3 0.744099 0.646573 0.0325378
220 3 0.755901 0.353427 0.967462
221 3 0.494099 0.853427 0.967462
222 3 0.505901 0.146573 0.0325378
223 3 0.755901 0.146573 0.467462
224 3 0.744099 0.853427 0.532538
225 3 0.980994 0.388544 0.205463
226 3 0.0190057 0.611456 0.794537
227 3 0.269006 0.611456 0.705463
228 3 0.230994 0.388544 0.294537
229 3 0.0190057 0.888544 0.294537
230 3 0.980994 0.111456 0.705463
231 3 0.230994 0.111456 0.794537
232 3 0.269006 0.888544 0.205463
233 3 0.480994 0.388544 0.205463
234 3 0.519006 0.611456 0.794537
235 3 0.769006 0.611456 0.705463
236 3 0.730994 0.388544 0.294537
237 3 0.519006 0.888544 0.294537
238 3 0.480994 0.111456 0.705463
239 3 0.730994 0.111456 0.794537
240 3 0.769006 0.888544 0.205463
241 4 0.116217 0.6064 0.233809
242 4 0.883783 0.3936 0.766191
243 4 0.133783 0.3936 0.733809
244 4 0.366217 0.6064 0.266191
245 4 0.883783 0.1064 0.266191
246 4 0.116217 0.8936 0.733809
247 4 0.366217 0.8936 0.766191
248 4 0.133783 0.1064 0.233809
249 4 0.616217 0.6064 0.233809
250 4 0.383783 0.3936 0.766191
251 4 0.633783 0.3936 0.733809
252 4 0.866217 0.6064 0.266191
253 4 0.383783 0.1064 0.266191
254 4 0.616217 0.8936 0.733809
255 4 0.866217 0.8936 0.766191
256 4 0.633783 0.1064 0.233809
257 4 0.135704 0.580011 0.437481
258 4 0.864296 0.419989 0.562519
259 4 0.114296 0.419989 0.937481
260 4 0.385704 0.580011 0.0625194
261 4 0.864296 0.0800105 0.0625194
262 4 0.135704 0.919989 0.937481
263 4 0.385704 0.919989 0.562519
264 4 0.114296 0.0800105 0.437481
265 4 0.635704 0.580011 0.437481
266 4 0.364296 0.419989 0.562519
267 4 0.614296 0.419989 0.937481
268 4 0.885704 0.580011 0.0625194
269 4 0.364296 0.0800105 0.0625194
270 4 0.635704 0.919989 0.937481
271 4 0.885704 0.919989 0.562519
272 4 0.614296 0.0800105 0.437481
273 4 0.96043 0.316361 0.531409
274 4 0.0395697 0.683639 0.468591
275 4 0.28957 0.683639 0.031409
276 4 0.21043 0.316361 0.968591
277 4 0.0395697 0.816361 0.968591
278 4 0.96043 0.183639 0.031409
279 4 0.21043 0.183639 0.468591
280 4 0.28957 0.816361 0.531409
281 4 0.46043 0.316361 0.531409
282 4 0.53957 0.683639 0.468591
283 4 0.78957 0.683639 0.031409
284 4 0.71043 0.316361 0.968591
285 4 0.53957 0.816361 0.968591
286 4 0.46043 0.183639 0.031409
287 4 0.71043 0.183639 0.468591
288 4 0.78957 0.816361 0.531409
289 4 0.0205568 0.432675 0.606993
290 4 0.979443 0.567324 0.393007
291 4 0.229443 0.567325 0.106993
292 4 0.270557 0.432676 0.893007
293 4 0.979443 0.932676 0.893007
294 4 0.0205568 0.0673245 0.106993
295 4 0.270557 0.0673245 0.393007
296 4 0.229443 0.932675 0.606993
297 4 0.520557 0.432675 0.606993
298 4 0.479443 0.567325 0.393007
299 4 0.729443 0.567325 0.106993
300 4 0.770557 0.432676 0.893007
301 4 0.479443 0.932675 0.893007
302 4 0.520557 0.0673245 0.106993
303 4 0.770557 0.0673245 0.393007
304 4 0.729443 0.932675 0.606993
305 4 0.938702 0.356397 0.250714
306 4 0.0612976 0.643603 0.749286
307 4 0.311298 0.643603 0.750714
308 4 0.188702 0.356397 0.249286
309 4 0.0612976 0.856397 0.249286
310 4 0.938702 0.143603 0.750714
311 4 0.188702 0.143603 0.749286
312 4 0.311298 0.856397 0.250714
313 4 0.438702 0.356397 0.250714
314 4 0.561298 0.643603 0.749286
315 4 0.811298 0.643603 0.750714
316 4 0.688702 0.356397 0.249286
317 4 0.561298 0.856397 0.249286
318 4 0.438702 0.143603 0.750714
319 4 0.688702 0.143603 0.749286
320 4 0.811298 0.856397 0.250714
321 4 0.985227 0.477006 0.135281
322 4 0.0147726 0.522994 0.864719
323 4 0.264773 0.522994 0.635281
324 4 0.235227 0.477006 0.364719
325 4 0.0147726 0.977006 0.364719
326 4 0.985227 0.0229936 0.635281
327 4 0.235227 0.0229936 0.864719
328 4 0.264773 0.977006 0.135281
329 4 0.485227 0.477006 0.135281
330 4 0.514773 0.522994 0.864719
331 4 0.764773 0.522994 0.635281
332 4 0.735227 0.477006 0.364719
333 4 0.514773 0.977006 0.364719
334 4 0.485227 0.0229937 0.635281
335 4 0.735227 0.0229936 0.864719
336 4 0.764773 0.977006 0.135281
ITEM: TIMESTEP
1000
ITEM: NUMBER OF ATOMS
336
ITEM: BOX BOUNDS xy xz yz pp pp pp
-3.9421063320268079e-01 2.6548771570504208e+01 -8.1443775907852844e-02
6.5211508069778823e-02 1.1517341533637058e+01 -1.2799560719061195e-01
-3.5560697127523611e-01 1.1064606605075284e+01 8.5526831068685281e-03
ITEM: ATOMS id type xs ys zs
1 1 0.105172 0.360138 0.458125
2 1 0.891762 0.645864 0.565548
3 1 0.154821 0.623073 0.935333
4 1 0.336416 0.431436 0.0555787
5 1 0.889704 0.83743 0.0659668
6 1 0.093638 0.0752543 0.945668
7 1 0.345639 0.108383 0.540014
8 1 0.165698 0.892951 0.478659
9 1 0.603453 0.342732 0.416314
10 1 0.405919 0.634636 0.58362
11 1 0.646476 0.61606 0.908868
12 1 0.851293 0.35755 0.0615578
13 1 0.408197 0.887004 0.0773192
14 1 0.590785 0.109204 0.946822
15 1 0.849676 0.141455 0.525898
16 1 0.648415 0.868521 0.431979
17 1 0.0267534 0.275092 0.347415
18 1 0.970526 0.751948 0.635684
19 1 0.218536 0.736047 0.810887
20 1 0.282554 0.273729 0.154374
21 1 0.973287 0.744832 0.142282
22 1 0.0353099 0.229553 0.852713
23 1 0.287785 0.239891 0.650421
24 1 0.220422 0.764588 0.352399
25 1 0.521231 0.255797 0.338118
26 1 0.478281 0.767323 0.67701
27 1 0.712566 0.731313 0.791082
28 1 0.781937 0.25626 0.175876
29 1 0.473648 0.7761 0.204132
30 1 0.525579 0.252223 0.865204
31 1 0.790055 0.236436 0.679111
32 1 0.708087 0.753139 0.308137
33 1 0.0929813 0.390413 0.239568
34 1 0.925685 0.601332 0.769934
35 1 0.162734 0.578138 0.711721
36 1 0.331509 0.418295 0.279065
37 1 0.919342 0.86348 0.284039
38 1 0.0955587 0.116612 0.727349
39 1 0.330803 0.0770813 0.762695
40 1 0.172631 0.933348 0.249977
41 1 0.574808 0.391677 0.202467
42 1 0.41785 0.644134 0.803525
43 1 0.6625 0.571114 0.685813
44 1 0.820557 0.443927 0.256172
45 1 0.404849 0.882954 0.30626
46 1 0.57929 0.139189 0.717337
47 1 0.856373 0.0881716 0.74883
48 1 0.658652 0.923328 0.215706
49 2 0.133385 0.287682 0.471751
50 2 0.862196 0.712293 0.577284
51 2 0.123981 0.666983 0.98383
52 2 0.367278 0.407179 0.993695
53 2 0.859315 0.771746 0.0539873
54 2 0.123085 0.0766375 0.0140919
55 2 0.377328 0.154277 0.50116
56 2 0.133481 0.845848 0.518775
57 2 0.631161 0.275385 0.412437
58 2 0.374355 0.686026 0.547438
59 2 0.611859 0.65738 0.938459
60 2 0.88403 0.30125 0.0477594
61 2 0.378172 0.841793 0.0260621
62 2 0.623332 0.140538 0.00348991
63 2 0.877942 0.205119 0.494405
64 2 0.615125 0.820483 0.465684
65 2 0.110401 0.417315 0.537533
66 2 0.874799 0.592959 0.492523
67 2 0.16374 0.555503 0.999718
68 2 0.322867 0.503596 0.00434943
69 2 0.879447 0.897763 0.994845
70 2 0.0742209 0.998704 0.975335
71 2 0.340238 0.0375052 0.478839
72 2 0.17646 0.956096 0.543001
73 2 0.615684 0.391127 0.492312
74 2 0.409155 0.556942 0.525951
75 2 0.649017 0.551567 0.982364
76 2 0.851584 0.410533 0.980051
77 2 0.414468 0.963465 0.0222115
78 2 0.583943 0.0219355 0.983513
79 2 0.842869 0.0875743 0.447627
80 2 0.657495 0.929487 0.504176
81 2 0.985333 0.290359 0.363114
82 2 0.00814795 0.753589 0.600008
83 2 0.259406 0.751774 0.827665
84 2 0.245307 0.237739 0.14693
85 2 0.0131254 0.741451 0.123188
86 2 0.994186 0.252358 0.854736
87 2 0.252352 0.28459 0.64533
88 2 0.256835 0.724195 0.351833
89 2 0.481957 0.255858 0.366323
90 2 0.519003 0.761492 0.664517
91 2 0.748687 0.77688 0.804879
92 2 0.74343 0.216934 0.167952
93 2 0.513388 0.768941 0.198537
94 2 0.485046 0.257347 0.884248
95 2 0.74966 0.254786 0.680398
96 2 0.744765 0.713964 0.310022
97 2 0.026841 0.17671 0.330278
98 2 0.959907 0.840806 0.650436
99 2 0.203511 0.819203 0.780456
100 2 0.306279 0.194821 0.167375
101 2 0.963408 0.653029 0.148332
102 2 0.0561861 0.312609 0.847949
103 2 0.313728 0.311754 0.674556
104 2 0.196335 0.68561 0.33893
105 2 0.5271 0.165976 0.311857
106 2 0.468542 0.857324 0.688449
107 2 0.688574 0.80778 0.763615
108 2 0.803855 0.18411 0.214706
109 2 0.458905 0.68633 0.215126
110 2 0.536921 0.34675 0.856866
111 2 0.807022 0.320161 0.698827
112 2 0.682357 0.679584 0.292813
113 2 0.12188 0.323067 0.220763
114 2 0.902161 0.656409 0.825642
115 2 0.135147 0.632315 0.663378
116 2 0.360766 0.360727 0.317308
117 2 0.899199 0.802209 0.338168
118 2 0.123487 0.183238 0.703028
119 2 0.355044 0.0894719 0.842642
120 2 0.146187 0.907369 0.180253
121 2 0.595943 0.33858 0.137652
122 2 0.392964 0.71381 0.833308
123 2 0.634524 0.610548 0.626903
124 2 0.834033 0.484612 0.337545
125 2 0.375823 0.821618 0.334551
126 2 0.603179 0.198837 0.666221
127 2 0.887182 0.145727 0.78396
128 2 0.630368 0.88632 0.153503
129 2 0.100845 0.451152 0.163781
130 2 0.940295 0.528597 0.827152
131 2 0.164114 0.495891 0.660433
132 2 0.327681 0.483944 0.346967
133 2 0.926147 0.942791 0.335251
134 2 0.0960398 0.0554909 0.653293
135 2 0.315546 0.987362 0.779455
136 2 0.183469 0.0177393 0.216831
137 2 0.568698 0.475851 0.160864
138 2 0.418099 0.584867 0.878685
139 2 0.673127 0.488977 0.643333
140 2 0.795212 0.517014 0.231656
141 2 0.401723 0.946692 0.377581
142 2 0.57208 0.0667113 0.65666
143 2 0.860151 0.00971841 0.800309
144 2 0.667433 0.00978655 0.178084
145 3 0.118315 0.429516 0.350663
146 3 0.891175 0.566847 0.670944
147 3 0.139035 0.556899 0.828549
148 3 0.356018 0.469975 0.172845
149 3 0.886398 0.899544 0.18255
150 3 0.116485 0.0481592 0.82895
151 3 0.362987 0.0562626 0.65597
152 3 0.145591 0.947779 0.364943
153 3 0.60538 0.418505 0.307938
154 3 0.391011 0.591684 0.700679
155 3 0.635218 0.546954 0.800542
156 3 0.858462 0.44293 0.160098
157 3 0.386602 0.930006 0.191205
158 3 0.60288 0.0797499 0.822429
159 3 0.869315 0.0658919 0.622517
160 3 0.632525 0.93952 0.327541
161 3 0.0555386 0.296143 0.460849
162 3 0.939929 0.707592 0.534318
163 3 0.19977 0.703978 0.931004
164 3 0.299609 0.334166 0.0422385
165 3 0.940612 0.783199 0.0435662
166 3 0.0579025 0.17617 0.961538
167 3 0.302025 0.192565 0.535674
168 3 0.209342 0.812264 0.471611
169 3 0.553985 0.28329 0.442107
170 3 0.453586 0.710713 0.57187
171 3 0.692641 0.694144 0.908448
172 3 0.80454 0.280253 0.0593991
173 3 0.454453 0.811763 0.0868595
174 3 0.54772 0.190996 0.968652
175 3 0.802931 0.207829 0.552219
176 3 0.690726 0.783428 0.428267
177 3 0.0415479 0.337696 0.238476
178 3 0.968825 0.68368 0.748876
179 3 0.209474 0.651361 0.710431
180 3 0.285561 0.342863 0.263665
181 3 0.968305 0.804415 0.257051
182 3 0.0463305 0.176552 0.735716
183 3 0.291059 0.167023 0.76125
184 3 0.214959 0.848515 0.2513
185 3 0.526239 0.327034 0.225709
186 3 0.467844 0.706495 0.791671
187 3 0.709247 0.647823 0.692268
188 3 0.781502 0.348592 0.268204
189 3 0.455785 0.830034 0.315637
190 3 0.530627 0.19799 0.742915
191 3 0.806323 0.147247 0.768279
192 3 0.701935 0.838421 0.209008
193 3 0.123368 0.562447 0.376708
194 3 0.888613 0.434326 0.641106
195 3 0.129357 0.425205 0.856674
196 3 0.363709 0.605184 0.180143
197 3 0.883706 0.0338528 0.170897
198 3 0.116549 0.914721 0.810367
199 3 0.373644 0.925515 0.647652
200 3 0.134894 0.0781731 0.382248
201 3 0.603165 0.551546 0.340774
202 3 0.391712 0.454413 0.707258
203 3 0.639982 0.417331 0.837552
204 3 0.868324 0.570803 0.126472
205 3 0.377301 0.0632221 0.186181
206 3 0.612636 0.94834 0.805885
207 3 0.860481 0.934293 0.588596
208 3 0.628712 0.0729163 0.356368
209 3 0.019199 0.356845 0.543226
210 3 0.972919 0.619821 0.469748
211 3 0.243252 0.661145 0.0104549
212 3 0.253293 0.373388 0.971714
213 3 0.969338 0.863243 0.956425
214 3 0.0169684 0.143852 0.0485944
215 3 0.254475 0.152849 0.467104
216 3 0.258115 0.857074 0.534268
217 3 0.526896 0.353991 0.535283
218 3 0.493713 0.651512 0.498262
219 3 0.73585 0.646595 0.984765
220 3 0.763633 0.322623 0.972766
221 3 0.497465 0.860985 0.0105692
222 3 0.505369 0.13885 0.0435914
223 3 0.757209 0.154943 0.488264
224 3 0.737401 0.821244 0.501377
225 3 0.000119426 0.425218 0.199155
226 3 0.0166647 0.613344 0.776079
227 3 0.258054 0.582036 0.690191
228 3 0.234878 0.402221 0.296729
229 3 0.0116707 0.894243 0.277826
230 3 0.00267763 0.0955448 0.695749
231 3 0.23902 0.117022 0.791557
232 3 0.266785 0.900923 0.217286
233 3 0.482235 0.41294 0.214642
234 3 0.511318 0.625312 0.821718
235 3 0.757679 0.575519 0.674795
236 3 0.728714 0.401463 0.276629
237 3 0.495286 0.923931 0.351347
238 3 0.487379 0.109146 0.726224
239 3 0.765828 0.0519917 0.787839
240 3 0.752653 0.897949 0.185546
241 4 0.119166 0.635774 0.292308
242 4 0.89014 0.354911 0.722417
243 4 0.132784 0.351723 0.775165
244 4 0.367379 0.651644 0.282087
245 4 0.888509 0.0926902 0.264387
246 4 0.115738 0.874271 0.707021
247 4 0.368423 0.864102 0.740517
248 4 0.141229 0.141786 0.29063
249 4 0.591178 0.627663 0.264603
250 4 0.378528 0.402241 0.801146
251 4 0.644624 0.335102 0.760162
252 4 0.866515 0.649648 0.205589
253 4 0.367477 0.114523 0.284946
254 4 0.607524 0.897415 0.704644
255 4 0.855018 0.857985 0.668011
256 4 0.622352 0.139043 0.26671
257 4 0.139283 0.598896 0.47438
258 4 0.869211 0.406097 0.542848
259 4 0.111839 0.395847 0.957564
260 4 0.381121 0.654511 0.0884962
261 4 0.867034 0.0845831 0.0767866
262 4 0.12709 0.854648 0.90343
263 4 0.396496 0.893156 0.55466
264 4 0.109627 0.109911 0.472277
265 4 0.622442 0.590192 0.43596
266 4 0.381203 0.398031 0.613427
267 4 0.618146 0.388903 0.931597
268 4 0.889853 0.591181 0.0290624
269 4 0.372228 0.112032 0.0878758
270 4 0.622836 0.885454 0.89432
271 4 0.873225 0.898752 0.487891
272 4 0.610602 0.103089 0.455049
273 4 0.971816 0.328963 0.539074
274 4 0.020514 0.635074 0.466471
275 4 0.286516 0.701553 0.99062
276 4 0.211671 0.318311 0.991123
277 4 0.0174092 0.860487 0.953835
278 4 0.971305 0.165236 0.0223411
279 4 0.213434 0.204202 0.489789
280 4 0.299656 0.810175 0.50572
281 4 0.479578 0.345192 0.545977
282 4 0.539652 0.681712 0.509595
283 4 0.782062 0.669169 0.963271
284 4 0.717801 0.296613 0.99857
285 4 0.541902 0.825224 0.0318265
286 4 0.467079 0.204023 0.0660145
287 4 0.713821 0.196203 0.512532
288 4 0.779451 0.774666 0.483552
289 4 0.0360665 0.407647 0.635333
290 4 0.952226 0.548918 0.397125
291 4 0.232979 0.613562 0.11
292 4 0.255502 0.442906 0.886024
293 4 0.943478 0.909188 0.874969
294 4 0.0300465 0.0927702 0.145021
295 4 0.256933 0.084295 0.379825
296 4 0.254983 0.918081 0.627592
297 4 0.553301 0.418029 0.605054
298 4 0.478535 0.59661 0.407123
299 4 0.723811 0.600744 0.0833808
300 4 0.774602 0.379138 0.881103
301 4 0.486512 0.899124 0.908502
302 4 0.517094 0.0565032 0.112565
303 4 0.762672 0.109585 0.385432
304 4 0.734301 0.890526 0.591007
305 4 0.954308 0.389105 0.194986
306 4 0.0570869 0.64021 0.724306
307 4 0.298002 0.644489 0.693938
308 4 0.194174 0.36091 0.25272
309 4 0.0552443 0.866859 0.241558
310 4 0.957393 0.127218 0.71974
311 4 0.199961 0.160087 0.746016
312 4 0.305288 0.836346 0.232458
313 4 0.44124 0.387063 0.265137
314 4 0.556022 0.654147 0.790491
315 4 0.800814 0.621985 0.689117
316 4 0.690739 0.335357 0.253925
317 4 0.541772 0.894633 0.347226
318 4 0.444224 0.143953 0.760972
319 4 0.719848 0.0812437 0.796107
320 4 0.792745 0.839541 0.202618
321 4 0.0126313 0.505708 0.127778
322 4 0.0152157 0.527325 0.848379
323 4 0.257565 0.480291 0.646502
324 4 0.231503 0.487523 0.368869
325 4 0.00811649 0.964446 0.365883
326 4 0.00990735 0.00633568 0.633067
327 4 0.23681 0.0476972 0.878915
328 4 0.26717 0.988751 0.148563
329 4 0.488148 0.500398 0.146277
330 4 0.50427 0.535144 0.885584
331 4 0.754397 0.478864 0.617616
332 4 0.724479 0.504265 0.319192
333 4 0.482902 0.0226295 0.394507
334 4 0.492511 0.0287391 0.652222
335 4 0.781595 0.960701 0.841049
336 4 0.753743 0.994133 0.128077
ITEM: TIMESTEP
2000
ITEM: NUMBER OF ATOMS
336
ITEM: BOX BOUNDS xy xz yz pp pp pp
-5.2624190236244295e-01 2.7061432305891806e+01 -5.0544345895941353e-02
1.8571805911294970e-01 1.1489479946178534e+01 2.2173442902535342e-01
-7.1093663967460063e-01 1.1419936273474622e+01 1.0119764669157391e-01
ITEM: ATOMS id type xs ys zs
1 1 0.104591 0.317376 0.408889
2 1 0.869518 0.665267 0.585342
3 1 0.146209 0.680977 0.926407
4 1 0.363354 0.327437 0.0944106
5 1 0.87399 0.827305 0.0643651
6 1 0.109767 0.18078 0.915589
7 1 0.364673 0.162999 0.590429
8 1 0.144235 0.822027 0.424331
9 1 0.62972 0.335352 0.379127
10 1 0.394011 0.676015 0.632985
11 1 0.640898 0.659953 0.896055
12 1 0.864647 0.317684 0.0814723
13 1 0.403383 0.824538 0.121945
14 1 0.624157 0.141454 0.875174
15 1 0.849383 0.172783 0.583366
16 1 0.648615 0.818201 0.400992
17 1 0.0375435 0.264363 0.269295
18 1 0.956011 0.729588 0.649417
19 1 0.219621 0.724355 0.79397
20 1 0.282699 0.271585 0.203418
21 1 0.954429 0.740547 0.121675
22 1 0.0430171 0.238816 0.777665
23 1 0.288108 0.237681 0.700583
24 1 0.21556 0.778902 0.289642
25 1 0.543126 0.253619 0.331775
26 1 0.463801 0.751055 0.757885
27 1 0.713901 0.712139 0.760365
28 1 0.786691 0.271323 0.195693
29 1 0.464488 0.79256 0.278209
30 1 0.540649 0.243051 0.826006
31 1 0.775808 0.211661 0.703237
32 1 0.719795 0.786423 0.256278
33 1 0.106246 0.413825 0.216872
34 1 0.897004 0.618641 0.780911
35 1 0.140979 0.622415 0.722585
36 1 0.351929 0.392622 0.296749
37 1 0.904835 0.857427 0.263932
38 1 0.10741 0.0763046 0.726845
39 1 0.352242 0.119459 0.796126
40 1 0.138731 0.873431 0.221995
41 1 0.590381 0.400311 0.202502
42 1 0.399123 0.602481 0.835063
43 1 0.64308 0.57712 0.697407
44 1 0.856247 0.394238 0.282221
45 1 0.388866 0.928572 0.310855
46 1 0.587874 0.103481 0.689436
47 1 0.84712 0.0972079 0.787649
48 1 0.641297 0.903697 0.201031
49 2 0.130455 0.243703 0.390722
50 2 0.842055 0.73203 0.590812
51 2 0.120899 0.755641 0.945656
52 2 0.388595 0.250688 0.104402
53 2 0.851217 0.746672 0.0668918
54 2 0.134023 0.254839 0.900401
55 2 0.39364 0.220717 0.564144
56 2 0.116602 0.753882 0.454437
57 2 0.659835 0.271777 0.359152
58 2 0.362941 0.741363 0.633644
59 2 0.614531 0.735047 0.895935
60 2 0.888312 0.240975 0.0907905
61 2 0.378664 0.744633 0.117975
62 2 0.648923 0.215878 0.846607
63 2 0.87375 0.252918 0.563686
64 2 0.626427 0.731812 0.407892
65 2 0.1106 0.333511 0.494774
66 2 0.857132 0.622895 0.508319
67 2 0.147803 0.636287 0.00464473
68 2 0.372828 0.366559 0.015676
69 2 0.860553 0.887467 0.997278
70 2 0.108691 0.152274 0.999963
71 2 0.365258 0.0993851 0.522021
72 2 0.149489 0.877624 0.495806
73 2 0.644398 0.382488 0.450111
74 2 0.39004 0.643158 0.546835
75 2 0.640426 0.618152 0.977873
76 2 0.870622 0.352227 0.996223
77 2 0.406724 0.850289 0.0342777
78 2 0.643708 0.0959074 0.939616
79 2 0.852382 0.1211 0.504981
80 2 0.648301 0.848523 0.487086
81 2 0.998045 0.265401 0.270632
82 2 0.994921 0.729096 0.623596
83 2 0.259435 0.698875 0.790216
84 2 0.244605 0.28674 0.180784
85 2 0.992901 0.743237 0.0876494
86 2 0.00188114 0.23777 0.782471
87 2 0.250885 0.216602 0.679117
88 2 0.253259 0.80946 0.299203
89 2 0.507302 0.244007 0.371204
90 2 0.502795 0.747186 0.751833
91 2 0.753971 0.704578 0.759537
92 2 0.748889 0.301714 0.181428
93 2 0.503918 0.801956 0.296038
94 2 0.502414 0.248332 0.856009
95 2 0.735088 0.195791 0.700597
96 2 0.758918 0.809288 0.261254
97 2 0.0449924 0.173321 0.236107
98 2 0.952529 0.819949 0.678826
99 2 0.222744 0.81632 0.766914
100 2 0.285299 0.179164 0.235935
101 2 0.945202 0.645348 0.129384
102 2 0.0529102 0.324187 0.735964
103 2 0.289752 0.325331 0.740212
104 2 0.220164 0.681348 0.264807
105 2 0.549917 0.162359 0.299856
106 2 0.459075 0.841745 0.790643
107 2 0.702705 0.795002 0.722831
108 2 0.782895 0.18039 0.231785
109 2 0.449172 0.703557 0.304409
110 2 0.550223 0.333347 0.790589
111 2 0.781063 0.306619 0.728024
112 2 0.721537 0.697747 0.218653
113 2 0.136498 0.363879 0.181582
114 2 0.875605 0.675821 0.834256
115 2 0.119528 0.697006 0.688815
116 2 0.366732 0.307101 0.328949
117 2 0.885655 0.805427 0.325866
118 2 0.133377 0.103861 0.661352
119 2 0.37211 0.197605 0.830391
120 2 0.122856 0.785814 0.199267
121 2 0.606278 0.343572 0.137491
122 2 0.368484 0.654497 0.86946
123 2 0.615432 0.63246 0.662588
124 2 0.881725 0.340052 0.330295
125 2 0.360603 0.876414 0.353678
126 2 0.610354 0.171754 0.643243
127 2 0.870657 0.162506 0.833251
128 2 0.616319 0.837442 0.165295
129 2 0.108076 0.501565 0.1791
130 2 0.900547 0.538061 0.828353
131 2 0.132237 0.549471 0.669415
132 2 0.354187 0.46162 0.358109
133 2 0.91638 0.936635 0.30972
134 2 0.0997079 0.982061 0.706559
135 2 0.36086 0.047499 0.855652
136 2 0.126945 0.940803 0.167126
137 2 0.581787 0.484197 0.159713
138 2 0.397673 0.524297 0.888014
139 2 0.63829 0.490387 0.659849
140 2 0.855944 0.482416 0.320334
141 2 0.385468 0.021314 0.334715
142 2 0.580993 0.0321084 0.633943
143 2 0.853553 0.00757062 0.819914
144 2 0.632595 0.988595 0.161789
145 3 0.120523 0.419393 0.334326
146 3 0.865186 0.585242 0.683169
147 3 0.122507 0.606651 0.842077
148 3 0.378851 0.405209 0.188621
149 3 0.870833 0.893438 0.171631
150 3 0.12896 0.0878797 0.84076
151 3 0.381005 0.0947258 0.689222
152 3 0.118632 0.894989 0.337935
153 3 0.628672 0.423646 0.284831
154 3 0.381138 0.583631 0.719545
155 3 0.623744 0.57042 0.814749
156 3 0.87953 0.405406 0.169098
157 3 0.377589 0.916789 0.190684
158 3 0.620729 0.0577193 0.781625
159 3 0.869896 0.0941313 0.674304
160 3 0.624356 0.900543 0.320639
161 3 0.0550406 0.263309 0.386855
162 3 0.919587 0.718596 0.558395
163 3 0.197261 0.733682 0.907568
164 3 0.312284 0.275823 0.0980381
165 3 0.922571 0.774967 0.0275547
166 3 0.0597464 0.23801 0.893498
167 3 0.318345 0.235235 0.595802
168 3 0.194411 0.7738 0.404867
169 3 0.583111 0.269509 0.413583
170 3 0.44234 0.74148 0.643646
171 3 0.692423 0.714146 0.873755
172 3 0.814554 0.267007 0.0866046
173 3 0.454921 0.783937 0.158591
174 3 0.579019 0.20937 0.910129
175 3 0.797698 0.215481 0.589459
176 3 0.700038 0.779717 0.376239
177 3 0.0577748 0.35836 0.191399
178 3 0.94736 0.669054 0.758833
179 3 0.193921 0.653435 0.706439
180 3 0.298886 0.352978 0.293224
181 3 0.952107 0.797498 0.233178
182 3 0.0605043 0.140512 0.702052
183 3 0.299635 0.152517 0.79309
184 3 0.191779 0.850895 0.201968
185 3 0.541401 0.339803 0.235564
186 3 0.446686 0.667698 0.848961
187 3 0.693642 0.625798 0.676272
188 3 0.803931 0.34796 0.289665
189 3 0.439751 0.889301 0.3416
190 3 0.54152 0.166904 0.72453
191 3 0.794836 0.136163 0.795811
192 3 0.693481 0.868853 0.177582
193 3 0.11535 0.545203 0.388303
194 3 0.874409 0.455498 0.646249
195 3 0.12629 0.476076 0.882654
196 3 0.381223 0.537887 0.15176
197 3 0.876764 0.0269513 0.144
198 3 0.124677 0.963021 0.897308
199 3 0.377551 0.960042 0.669706
200 3 0.121842 0.0271122 0.370029
201 3 0.621281 0.552744 0.330403
202 3 0.388722 0.457438 0.673559
203 3 0.628893 0.441165 0.860981
204 3 0.875914 0.534653 0.125184
205 3 0.391775 0.0381244 0.136808
206 3 0.604323 0.93185 0.824824
207 3 0.871391 0.962429 0.637106
208 3 0.619238 0.0287387 0.365192
209 3 0.0163628 0.327385 0.458495
210 3 0.942168 0.667132 0.451977
211 3 0.231441 0.682889 0.995277
212 3 0.283759 0.320667 0.996768
213 3 0.950409 0.86613 0.953257
214 3 0.0211062 0.184047 0.974848
215 3 0.286908 0.189862 0.501061
216 3 0.229665 0.83726 0.485037
217 3 0.561108 0.32208 0.520694
218 3 0.478557 0.684289 0.563231