LAMMPS data file via write_data, version 15 Apr 2020, timestep = 80000

336 atoms
4 atom types

4.5182172136059684e-01 2.5912178599039439e+01 xlo xhi
1.7453740885432723e-02 1.1556546617714321e+01 ylo yhi
-8.4148423522239124e-01 1.1550483869022571e+01 zlo zhi
3.6302492756632382e-01 3.6419646131380143e+00 1.6635112438193606e-01 xy xz yz

Masses

1 12.0107
2 1.00794
3 14.0067
4 15.9994

Atoms # full

1 1 1 -3.2881738266812338e-01 3.6804580953062866e+00 2.7130237649681841e+00 2.5859251041615989e+00 0 0 0
2 1 1 -3.2923128683715353e-01 2.5356474874829040e+01 8.2687870053470807e+00 6.2673515178262624e+00 0 0 0
3 1 1 -3.2676514159258091e-01 7.3054559369958092e+00 8.1137444399004881e+00 9.9899443832261738e+00 0 0 0
4 1 1 -3.2845557063768721e-01 1.0252650062176187e+01 3.2567604633708975e+00 7.9901806957156163e-01 0 0 0
5 1 1 -3.2295674663034557e-01 2.3419356931831576e+01 9.0406247005600715e+00 1.0618038744325631e-01 0 0 0
6 1 1 -3.2830698819143506e-01 5.6676109334388407e+00 2.9625424153175137e+00 8.5659786928889297e+00 0 0 0
7 1 1 -3.2325389781776681e-01 1.1919917284890857e+01 2.8929833728293728e+00 7.0200840329922363e+00 0 0 0
8 1 1 -3.3203617957209036e-01 5.4287190988423966e+00 8.8903450941424182e+00 3.3018500803834554e+00 0 0 0
9 1 1 -3.1998198121782495e-01 1.7723303876772558e+01 3.6822026000626411e+00 5.1024698519973910e+00 0 0 0
10 1 1 -3.2326765393715184e-01 1.3912291066557849e+01 8.9920089976991608e+00 8.3753414550136576e+00 0 0 0
11 1 1 -3.3157069418900431e-01 1.7912243925215414e+01 8.8417747278693195e+00 -5.0008660987798725e-01 0 0 1
12 1 1 -3.2157653082320475e-01 2.6534453712276903e+01 3.5262625185544159e+00 1.1545892455796178e+01 0 0 -1
13 1 1 -3.2779928381427959e-01 1.1640491968794286e+01 9.1803842533857978e+00 1.9918312960955653e+00 0 0 0
14 1 1 -3.3302543072879914e-01 2.0346387776866170e+01 2.8458721884781437e+00 1.0969087657297536e+01 0 0 0
15 1 1 -3.2537292451303951e-01 2.3824762866038167e+01 3.0194630799275082e+00 5.0628821761385909e+00 0 0 0
16 1 1 -3.1742828528845479e-01 1.9108913298601188e+01 8.7744960474000333e+00 5.6885045839966031e+00 0 0 0
17 1 1 -3.3154070170051381e-01 1.9810380774188965e+00 2.5507921872648018e+00 6.5526144423975197e-01 0 0 0
18 1 1 -3.3033865970987664e-01 2.7747198718474213e+01 8.9807263277303466e+00 6.7221542132799152e+00 0 0 0
19 1 1 -3.2840345502043033e-01 9.2937608063977848e+00 9.3959109087654173e+00 9.1339123103261457e+00 0 0 0
20 1 1 -3.3375497506269725e-01 8.2113318443857608e+00 2.5189317552571819e+00 2.0168946508395833e+00 0 0 0
21 1 1 -3.2909864302930258e-01 2.5618383525335503e+01 7.9105596789608823e+00 6.8997563462139344e-01 0 0 0
22 1 1 -3.2935965694502389e-01 4.1185940717300866e+00 2.8596813605099514e+00 6.5330269739866358e+00 0 0 0
23 1 1 -3.1968069879260619e-01 1.0100012083674363e+01 4.2309806376958994e+00 8.2613341813826828e+00 0 0 0
24 1 1 -3.2774007715492531e-01 7.4605709667222175e+00 7.7090159281216488e+00 2.1760799282551875e+00 0 0 0
25 1 1 -3.2645140779219145e-01 1.5522099220621538e+01 2.6308686739766411e+00 4.4285638530986189e+00 0 0 0
26 1 1 -3.2927364162270750e-01 1.5661137874296053e+01 8.7344491967960298e+00 1.0370177917307149e+01 0 0 0
27 1 1 -3.2814695327601062e-01 2.1469289085873690e+01 8.8557675716380047e+00 9.3161609936966840e+00 0 0 0
28 1 1 -3.3001586707439690e-01 2.0747947294660108e+01 2.4932844320856908e+00 3.2924034773917144e-01 0 0 0
29 1 1 -3.2872030571243926e-01 1.3443880002550681e+01 8.6998240983559647e+00 3.7685619026401502e+00 0 0 0
30 1 1 -3.3225815915922158e-01 1.7918306600475045e+01 3.6083598200366378e+00 1.0675975183508672e+01 0 0 0
31 1 1 -3.2885621817566596e-01 2.3151382726160708e+01 2.9329843174380255e+00 7.5796601290717573e+00 0 0 0
32 1 1 -3.2830462547407191e-01 2.0056961369635047e+01 8.1081362425664789e+00 3.3695007015671488e+00 0 0 0
33 1 1 -3.2568735129394338e-01 4.0574812999008394e+00 3.9675823024228563e+00 4.2073145164793435e-01 0 0 0
34 1 1 -3.3227689840487834e-01 2.6748993144312209e+01 6.9861830414097748e+00 8.0618136262866926e+00 0 0 0
35 1 1 -3.2519000306788831e-01 7.4893463647016558e+00 8.5394174423192943e+00 7.4846430864554092e+00 0 0 0
36 1 1 -3.2004727498028251e-01 1.0075858824509439e+01 3.8014005877274224e+00 3.2629215306590567e+00 0 0 0
37 1 1 -3.3049366034672506e-01 2.4942427299803139e+01 1.0160842249440888e+01 1.8624594734032178e+00 0 0 0
38 1 1 -3.3590622744762999e-01 6.0282869245689144e+00 1.1807914921799205e+00 6.7743041879598502e+00 0 0 0
39 1 1 -3.3298530833565665e-01 1.1764970038340198e+01 2.7860956193251303e+00 9.5383021613176382e+00 0 0 0
40 1 1 -3.3325647526554691e-01 5.6656309490315557e+00 8.8369230905761800e+00 7.5143678198084030e-01 0 0 0
41 1 1 -3.1710218575065507e-01 1.6442567993929334e+01 4.6268164227569786e+00 3.0819422974562305e+00 0 0 0
42 1 1 -3.2260232559447732e-01 1.3599514873814417e+01 7.1823105368775106e+00 1.0149433587885319e+01 0 0 0
43 1 1 -3.3059430144604834e-01 1.9646524458351145e+01 7.6947709431870104e+00 1.0831850165081129e+01 0 0 0
44 1 1 -3.3638997385084274e-01 2.2683896205412253e+01 3.4530660303049232e+00 1.6998635873552259e+00 0 0 0
45 1 1 -3.2580997186497912e-01 1.1696080455485404e+01 1.0520252561831144e+01 4.2128373787547897e+00 0 0 0
46 1 1 -3.3357143697817682e-01 1.8801399077114844e+01 1.7993011245931287e+00 9.1056539406003054e+00 0 0 0
47 1 1 -3.2932173840127987e-01 2.5112905861327953e+01 1.5089995965815646e+00 6.7140202045177597e+00 0 0 0
48 1 1 -3.1963335382406111e-01 1.8104452645791678e+01 9.8731052681968787e+00 3.5893825894560720e+00 0 0 0
49 1 2 2.6088611871211181e-01 4.4279405529459446e+00 1.8849707925490735e+00 2.6413749810791565e+00 0 0 0
50 1 2 2.4999989966022260e-01 2.4663404000031370e+01 9.0809783537255075e+00 6.6138902483665802e+00 0 0 0
51 1 2 2.6655739537975276e-01 6.7248582820171849e+00 8.9966824476813123e+00 1.0277836333888200e+01 0 0 0
52 1 2 2.6836438935066292e-01 1.0755757206308672e+01 2.2952772403560231e+00 8.4688808307459729e-01 0 0 0
53 1 2 2.6547441958899431e-01 2.2764858026181624e+01 8.4255328945244887e+00 6.8469125422015398e-01 0 0 0
54 1 2 2.9121299171815651e-01 6.3564561049280375e+00 3.7905729048599519e+00 8.4761231170956961e+00 0 0 0
55 1 2 2.8274345564176739e-01 1.2600121339228156e+01 3.7086972453012703e+00 6.7051919750442064e+00 0 0 0
56 1 2 2.8090930858172053e-01 4.8606539324102531e+00 8.0138864745203193e+00 3.3692303150148453e+00 0 0 0
57 1 2 2.7178429053006320e-01 1.8633850373949397e+01 3.0803681984809752e+00 4.7818205031729901e+00 0 0 0
58 1 2 2.6333860725257702e-01 1.3316499896921288e+01 9.8994786905530070e+00 8.6583983803883484e+00 0 0 0
59 1 2 2.6962165277473887e-01 1.7403797483527839e+01 9.7224949336034676e+00 -1.4041259124926786e-01 0 0 1
60 1 2 2.8618657080327053e-01 2.7205754558599246e+01 2.6835731601948178e+00 1.1482373930450240e+01 0 0 -1
61 1 2 2.6622383178817727e-01 1.0849809138277397e+01 8.3848861176408516e+00 2.0340064430972373e+00 0 0 0
62 1 2 2.5457080723348863e-01 2.0967697445982353e+01 3.5441362093991118e+00 1.0406534675211301e+01 0 0 0
63 1 2 2.6842520099091766e-01 2.4485392981335210e+01 3.9142192774747997e+00 4.8900542255697488e+00 0 0 0
64 1 2 3.0053476198315610e-01 1.8409387671675773e+01 7.9992840120840505e+00 6.0993346736912120e+00 0 0 0
65 1 2 2.4964324066076327e-01 3.5582659311594522e+00 2.9954662179319600e+00 3.6389493206873276e+00 0 0 0
66 1 2 2.6951118790135997e-01 2.4853330085220662e+01 7.8780645818370498e+00 5.3625593465481103e+00 0 0 0
67 1 2 2.4710265726747244e-01 7.0538798738184543e+00 7.3271397981300179e+00 1.0764970453353655e+01 0 0 -1
68 1 2 2.4832007435099915e-01 1.0635074122928174e+01 3.7342491285052453e+00 -1.0198651098477340e-01 0 0 1
69 1 2 2.9193434930016599e-01 2.2889156948191680e+01 9.4167680924767208e+00 -8.3360772220417101e-01 0 0 1
70 1 2 2.5604597305468829e-01 5.4063849656643406e+00 2.9026401564308260e+00 9.6219340266156799e+00 0 0 -1
71 1 2 2.5149482201961126e-01 1.1947769590642784e+01 2.2136219349393786e+00 6.1699595770114115e+00 0 0 0
72 1 2 2.6642770250448644e-01 5.1844928970004105e+00 9.5218643464650974e+00 4.1450607679584035e+00 0 0 0
73 1 2 2.6039978773089439e-01 1.8080357624972208e+01 4.1972241434296160e+00 6.0620359704422171e+00 0 0 0
74 1 2 2.6223546216035915e-01 1.4044600825357524e+01 9.0276345217399268e+00 7.2644698102420540e+00 0 0 0
75 1 2 2.3944604411115059e-01 1.8737437119261639e+01 8.6281743967673012e+00 1.8313173477289424e-01 0 0 0
76 1 2 2.6856782051788941e-01 2.6714851352108425e+01 4.1990474602654757e+00 1.0668845777083281e+01 0 0 0
77 1 2 2.4523222907106054e-01 1.1770876635903306e+01 9.4049293713547666e+00 9.2732440777789860e-01 0 0 1
78 1 2 2.5273337452648037e-01 1.7385205310210122e+01 2.4002672656664701e+00 -6.6878722046494032e-01 0 0 0
79 1 2 2.3220880601042296e-01 2.3313550401987467e+01 2.8226851600611464e+00 4.1030922771820562e+00 0 0 0
80 1 2 2.5617532062450732e-01 1.9627965773070446e+01 9.2129734389342701e+00 6.5536182082416321e+00 0 0 0
81 1 2 2.6083759276009716e-01 9.8986420702761602e-01 2.5759174917287768e+00 3.0194071634415787e-01 1 0 0
82 1 2 2.8007158533333054e-01 3.2688398386850710e+00 9.2909198285399466e+00 6.3820973017031903e+00 0 0 0
83 1 2 2.5351856876992390e-01 1.0368384922587335e+01 9.4709542291389077e+00 9.2436324478004259e+00 0 0 0
84 1 2 2.2073995167830257e-01 7.1463412150649539e+00 2.2833556962585329e+00 1.9737620408335528e+00 0 0 0
85 1 2 2.8128037421279872e-01 1.0699926194293516e+00 7.4001147606152715e+00 3.2559738539184124e-01 0 0 0
86 1 2 2.4966543875983183e-01 2.9658410113588687e+00 2.9143518963996136e+00 6.3195887984991188e+00 1 0 0
87 1 2 2.5687914960578917e-01 8.9665151559455367e+00 4.2750790187416543e+00 8.2968087910898944e+00 0 0 0
88 1 2 2.5219008894231892e-01 8.5387547452439136e+00 7.5345106488000981e+00 2.2641064635168417e+00 0 0 0
89 1 2 2.7448926197816037e-01 1.4598366946005189e+01 2.1489329137592161e+00 4.7566624752206250e+00 0 0 0
90 1 2 2.4593986716814500e-01 1.6804064607495921e+01 8.6379953363765072e+00 1.0376491916482880e+01 0 0 0
91 1 2 2.6686704824340618e-01 2.2210878354742789e+01 8.4125394207331610e+00 8.6795421550894893e+00 0 0 0
92 1 2 2.4360321212755343e-01 1.9696641296590517e+01 2.7414134792059084e+00 1.3884413062363954e-01 0 0 0
93 1 2 2.7003152559702531e-01 1.4515739364453458e+01 8.5252861479339188e+00 3.7005335984113099e+00 0 0 0
94 1 2 2.6198613150135802e-01 1.7016882615959254e+01 3.5476322610025863e+00 1.1326523016848732e+01 0 0 0
95 1 2 2.4136257891226978e-01 2.2325446001456662e+01 2.9237087466281917e+00 8.3164366473407334e+00 0 0 0
96 1 2 2.4969251559298083e-01 2.1086656126120602e+01 8.2017301313729636e+00 3.0273339417975333e+00 0 0 0
97 1 2 2.6712226215295876e-01 2.3972471393935604e+00 1.7873058813861602e+00 2.4265325840729712e-02 0 0 0
98 1 2 2.4099412769880224e-01 2.7551936006499528e+01 9.7442892307045277e+00 7.4638291702957629e+00 0 0 0
99 1 2 2.3668283169094420e-01 8.9121003633887206e+00 1.0389680210800410e+01 9.4043205753016252e+00 0 0 0
100 1 2 2.3156705917479165e-01 8.6098395590334320e+00 1.5179636163180585e+00 2.0840498912584215e+00 0 0 0
101 1 2 2.4998320420199482e-01 2.5312114747716691e+01 7.2652848935021694e+00 1.5277648212934123e+00 0 0 0
102 1 2 2.5385830863924685e-01 4.5312608679157442e+00 3.6310132579306034e+00 5.9103200124229218e+00 0 0 0
103 1 2 2.5548107946647636e-01 1.0465199645975972e+01 5.2963384157000535e+00 8.3858906039743566e+00 0 0 0
104 1 2 2.5635371696216835e-01 7.0822392387908346e+00 6.7006367543278680e+00 2.3123349984287733e+00 0 0 0
105 1 2 2.4814473620781491e-01 1.6013659219823463e+01 1.7879568227141123e+00 3.8863248563465733e+00 0 0 0
106 1 2 2.3889404751168153e-01 1.5353554755170718e+01 9.4911248736939609e+00 1.1065328983454158e+01 0 0 0
107 1 2 2.5163899449659111e-01 2.1203274556694140e+01 9.7918758561799422e+00 8.7331717114933127e+00 0 0 0
108 1 2 2.4229399261299925e-01 2.0855622330154315e+01 1.3778948454944506e+00 4.1840584463615493e-01 0 0 0
109 1 2 2.6694674401198903e-01 1.3010696911207569e+01 7.9107929666320498e+00 4.3768884169696491e+00 0 0 0
110 1 2 2.7714435349113947e-01 1.7790510695085128e+01 4.5570879369526560e+00 1.0284262732018465e+01 0 0 0
111 1 2 2.5299417248421069e-01 2.3592645029808100e+01 3.9097178763631319e+00 7.7852247583441594e+00 0 0 0
112 1 2 2.6747967488898994e-01 1.9746350209264524e+01 7.0890461657066179e+00 3.0467970203979959e+00 0 0 0
113 1 2 2.6159495468734129e-01 4.6406092373631456e+00 3.2163100337615123e+00 -1.2344265545289179e-01 0 0 0
114 1 2 2.5882000446070630e-01 2.6581966116204370e+01 7.2506397195488859e+00 9.0678584692239248e+00 0 0 0
115 1 2 2.3731153540562772e-01 6.6671217762631159e+00 9.3243342218164393e+00 7.3336151777481264e+00 0 0 0
116 1 2 2.5478000386660937e-01 1.0707571878582920e+01 3.1270504319042534e+00 3.8858099438939950e+00 0 0 0
117 1 2 2.5599104956817587e-01 2.4556907638450767e+01 9.9125593792288331e+00 2.8604978447035405e+00 0 0 0
118 1 2 2.5133536537850665e-01 6.8578506831922361e+00 1.6633970593698606e+00 6.2249906995076891e+00 0 0 0
119 1 2 2.4271752014537554e-01 1.2564824418836036e+01 3.4381515772710571e+00 9.7809232295421573e+00 0 0 0
120 1 2 2.3260922122601954e-01 4.9775274016259656e+00 8.1230919719655201e+00 3.0629220126583045e-01 0 0 0
121 1 2 2.8254260945214482e-01 1.6862234279142221e+01 4.3743477444958261e+00 2.0448630807352148e+00 0 0 0
122 1 2 2.5757448133463823e-01 1.2730945631150922e+01 7.4434202875093582e+00 1.0813138565336516e+01 0 0 0
123 1 2 2.3913130087566320e-01 1.8821374984103407e+01 8.4209719215397474e+00 1.0734576756399893e+01 0 0 0
124 1 2 2.4980012609286820e-01 2.3266951710366392e+01 2.6088225903520517e+00 2.0098056863893299e+00 0 0 0
125 1 2 2.5202012217436498e-01 1.0914287923747333e+01 9.8548022552644472e+00 4.6655609499501756e+00 0 0 0
126 1 2 2.4506516783923080e-01 1.9135067744283177e+01 2.3786512318622446e+00 8.2089766263289903e+00 0 0 0
127 1 2 2.5840421556779958e-01 2.6035197864966495e+01 2.1252986385485801e+00 6.9279661725467738e+00 0 0 0
128 1 2 2.6124837289054842e-01 1.7177920090161550e+01 9.3107712145559898e+00 3.3573129859439570e+00 0 0 0
129 1 2 2.7170186838518129e-01 4.3696730310725727e+00 4.9976766074134842e+00 7.8646551167583456e-02 0 0 0
130 1 2 2.5807351182735394e-01 2.6926489108953589e+01 5.8740136088391406e+00 8.1359555757956947e+00 0 0 0
131 1 2 2.6354815355618794e-01 7.6075781854043880e+00 7.9403350271925293e+00 6.6038201441927349e+00 0 0 0
132 1 2 2.5181321842079263e-01 1.0089045281562560e+01 4.7725559388591670e+00 3.8430173839144990e+00 0 0 0
133 1 2 2.5591567072270782e-01 2.5396014647573878e+01 1.1130605016357350e+01 2.1225022292218929e+00 0 0 0
134 1 2 2.4994921274096160e-01 6.0036841862169679e+00 1.2311767968728987e-01 6.7132940514593713e+00 0 0 0
135 1 2 2.4294842276813911e-01 1.1901129646794626e+01 1.9838730855319147e+00 1.0249343826884097e+01 0 0 0
136 1 2 2.4299165626281857e-01 5.7573321699420550e+00 9.6733307351262621e+00 8.4212281285401702e-02 0 0 0
137 1 2 2.7004645411832678e-01 1.6072752979345626e+01 5.6776781643800858e+00 2.9291905691272477e+00 0 0 0
138 1 2 2.7610774566573365e-01 1.3515568909261084e+01 6.0829360009737981e+00 1.0115392192109329e+01 0 0 0
139 1 2 2.5710508073845018e-01 1.9160211601364960e+01 6.7648139911805973e+00 1.0956598605173419e+01 0 0 0
140 1 2 2.3768631062280252e-01 2.2642100397153460e+01 4.1725884945665106e+00 2.5396710850644277e+00 0 0 0
141 1 2 2.6691137487861782e-01 1.1504772197817282e+01 1.1452931574284989e+01 4.7229764455457106e+00 0 0 0
142 1 2 2.7732721003052302e-01 1.8615641976375198e+01 7.7035360157358190e-01 8.7615880873232292e+00 0 0 0
143 1 2 2.4765291806309378e-01 2.5393846456559590e+01 4.8528200131592797e-01 6.7985116615538956e+00 0 0 0
144 1 2 2.5993499448165092e-01 1.7877628013640649e+01 1.0938193865569943e+01 3.3317755997494638e+00 0 0 0
145 1 3 1.8290419611307587e-01 4.4340486927128362e+00 3.7622542769900900e+00 1.9005149861397306e+00 0 0 0
146 1 3 1.8779262413549583e-01 2.5475290233849879e+01 7.1533409768763496e+00 7.2932926374285190e+00 0 0 0
147 1 3 1.7985910401131547e-01 6.8699840035052215e+00 7.7513828914968732e+00 8.6109675325761401e+00 0 0 0
148 1 3 1.7135532751715521e-01 1.0788986071407413e+01 4.0347301552095720e+00 2.0013133171332753e+00 0 0 0
149 1 3 1.8336999780900448e-01 2.3756904529871385e+01 1.0261443020693354e+01 9.3969829173835184e-01 0 0 0
150 1 3 1.8005616513601824e-01 6.3769074189521575e+00 1.7025821239435330e+00 8.1598305432327685e+00 0 0 0
151 1 3 1.8564749470818076e-01 1.2357355877135818e+01 2.1833372796254795e+00 8.2916654119781157e+00 0 0 0
152 1 3 1.8737356483662121e-01 5.0854355812039866e+00 9.5132680085541192e+00 2.0045567242109050e+00 0 0 0
153 1 3 1.9038475972285485e-01 1.7598899270107371e+01 4.7383091920554943e+00 4.0281291058856699e+00 0 0 0
154 1 3 1.8815514991013460e-01 1.3170060368579659e+01 7.7529828160269938e+00 8.8312774483942356e+00 0 0 0
155 1 3 1.7288062358438872e-01 1.6853377356016050e+01 7.8226506743692754e+00 -3.3919700296596811e-01 0 0 1
156 1 3 1.8172119267310066e-01 2.3294578441850803e+01 4.0423069780740430e+00 4.8155595314442712e-01 0 0 0
157 1 3 1.9019999997712311e-01 1.1161449786119082e+01 1.0341956683499626e+01 2.8069270832279050e+00 0 0 0
158 1 3 1.6765837726034047e-01 2.0059597533097097e+01 1.7452510225780449e+00 9.9804185307909670e+00 0 0 0
159 1 3 1.8185068250550454e-01 2.4770327684438019e+01 1.8825352648336910e+00 5.2890342243509574e+00 0 0 0
160 1 3 1.8426914393809651e-01 1.8270763634095275e+01 9.8941918107302396e+00 5.0786764773782380e+00 0 0 0
161 1 3 1.9347381315763790e-01 2.2983935626626284e+00 2.3253780706102227e+00 2.0923918420728027e+00 0 0 0
162 1 3 1.8338549038916246e-01 2.6549535094848128e+01 9.0235215617685256e+00 5.8038955596544159e+00 0 0 0
163 1 3 1.3444657217848141e-01 8.7944959225638506e+00 8.4618660069731089e+00 1.0201146337771380e+01 0 0 0
164 1 3 1.5866438436885000e-01 8.7902167469742487e+00 2.9540848301562570e+00 6.9386710338367386e-01 0 0 0
165 1 3 1.8586627964798785e-01 2.4510537922220344e+01 8.0530315503405649e+00 -2.9429999936291062e-01 0 0 0
166 1 3 1.9225013182630266e-01 4.3361454934172095e+00 3.3079221316996894e+00 7.9566357967863750e+00 0 0 0
167 1 3 1.6351344380657098e-01 1.0592183205289396e+01 3.5337426957902558e+00 6.9824852943339311e+00 0 0 0
168 1 3 1.7656862798274672e-01 6.8717766367222515e+00 8.4190315001084137e+00 3.3773185397238565e+00 0 0 0
169 1 3 1.8457352941926139e-01 1.6570853606632092e+01 2.8060105666311270e+00 5.4760534246327586e+00 0 0 0
170 1 3 1.7333924179242161e-01 1.5276340534709810e+01 9.2066424390264228e+00 8.9855657905553485e+00 0 0 0
171 1 3 1.9034463502133098e-01 2.2162916880492027e+01 9.3325177521814133e+00 1.0523170435060461e+01 0 0 0
172 1 3 1.7042477177553206e-01 2.5172461369517322e+01 2.9413146220250002e+00 1.1442438708289689e+01 0 0 -1
173 1 3 1.6968624028439525e-01 1.2946583485929507e+01 8.5166965239271750e+00 2.3465283044648833e+00 0 0 0
174 1 3 1.8497262817892182e-01 1.9175228855296744e+01 3.6701520799074778e+00 1.1451576947260598e+01 0 0 0
175 1 3 1.7111124851368492e-01 2.2818180829508325e+01 3.3045933572530997e+00 6.1523243913982011e+00 0 0 0
176 1 3 1.8422893141943211e-01 2.0200885369901354e+01 8.1670757715849103e+00 4.8671882707325160e+00 0 0 0
177 1 3 1.5819958062914108e-01 2.6837620252615748e+00 3.6640688646597446e+00 -7.2015501358633549e-02 0 0 0
178 1 3 1.7744257168596525e-01 2.7934133523271800e+01 7.7771942521910882e+00 7.6081578257200251e+00 0 0 0
179 1 3 1.6309744913320695e-01 8.7959286414850855e+00 9.2902852104454894e+00 7.7114570145720807e+00 0 0 0
180 1 3 1.7109023761467609e-01 8.6336104493319716e+00 3.2435795633896900e+00 3.2533841400761530e+00 0 0 0
181 1 3 1.7907939167169232e-01 2.6025329144757968e+01 9.1637648349727936e+00 1.4431623571213716e+00 0 0 0
182 1 3 1.5373962950557499e-01 4.7242153091424957e+00 1.5539172182001806e+00 6.1351550480263368e+00 0 0 0
183 1 3 1.8140033946014170e-01 1.0468008062901685e+01 3.5876492649609402e+00 9.5590350014703205e+00 0 0 0
184 1 3 1.5952576760005394e-01 6.9999653388326415e+00 8.1180283433833811e+00 8.1622830433033355e-01 0 0 0
185 1 3 1.9503551656469245e-01 1.5263123848732098e+01 3.7648878236244854e+00 3.4617798472429415e+00 0 0 0
186 1 3 1.8764376765656723e-01 1.4956579494714966e+01 7.4504414879289369e+00 1.0769492521538265e+01 0 0 0
187 1 3 1.7052837544342869e-01 2.0327557222815113e+01 7.8507891932983318e+00 9.4964008150799337e+00 0 0 0
188 1 3 1.7456492612174992e-01 2.1233673221331188e+01 3.0076152783058001e+00 1.6337718403237114e+00 0 0 0
189 1 3 1.7710926568780239e-01 1.3060444180656535e+01 9.9548180176060050e+00 4.5067615269573436e+00 0 0 0
190 1 3 1.8319086728017828e-01 1.7643580598276923e+01 2.5668079903211396e+00 9.5468350571880123e+00 0 0 0
191 1 3 1.7097799817492396e-01 2.4119912590073273e+01 1.8397941320966700e+00 7.8189877618044354e+00 0 0 0
192 1 3 1.6899760005557996e-01 1.9186357897555357e+01 9.1836135167115032e+00 2.7621932117182806e+00 0 0 0
193 1 3 3.4199922729619103e-01 4.3261778497596524e+00 5.1544256384662237e+00 2.5579569792389174e+00 0 0 0
194 1 3 3.1225129929049655e-01 2.5167476885956678e+01 5.8213931419084410e+00 6.5871478060100506e+00 0 0 0
195 1 3 3.1467525526821383e-01 6.8431438383197811e+00 6.2412151274145167e+00 8.2769847283505555e+00 0 0 0
196 1 3 3.0596879722099823e-01 1.0798213274343869e+01 5.5556750157556767e+00 1.7110257432438063e+00 0 0 0
197 1 3 3.2249478128994424e-01 2.3844256049958918e+01 1.1539704155748359e+01 8.1834792955474245e-02 0 -1 0
198 1 3 3.2093621258878546e-01 6.2972274003813133e+00 6.2371865876608323e-01 9.2500349461598610e+00 0 1 0
199 1 3 3.0936296125943347e-01 1.2169453022977521e+01 6.4845725205244520e-01 8.2289307031353225e+00 0 1 0
200 1 3 3.1155357740666756e-01 5.2399364990754433e+00 1.1047252391065708e+01 1.9699753164769098e+00 0 -1 0
201 1 3 3.1625634943858272e-01 1.7808134040328710e+01 6.1603248176250602e+00 4.6251120460875521e+00 0 0 0
202 1 3 3.4267420901607043e-01 1.3165706561424360e+01 6.6739836175134561e+00 7.7363725603533391e+00 0 0 0
203 1 3 3.1587464647108171e-01 1.7428097711910819e+01 6.5523761922370207e+00 3.6430373514318370e-01 0 0 1
204 1 3 3.2071284939771527e-01 2.2989408882542524e+01 5.5650527504673217e+00 3.4108376948570052e-01 0 0 0
205 1 3 3.1246726488450033e-01 1.0767069113132772e+01 1.7036152750856232e-01 2.0710679773540495e+00 0 0 0
206 1 3 3.2384315197499441e-01 1.9998248357603334e+01 4.3940637180296249e-01 1.0758559698176676e+01 0 1 0
207 1 3 3.1314951406515795e-01 2.4298340400730709e+01 5.9162894481058037e-01 4.5539766125181336e+00 0 1 0
208 1 3 3.2480538905010431e-01 1.8598559812897289e+01 1.1301214862788310e+01 5.6271870698686151e+00 0 -1 0
209 1 3 3.2014891563110320e-01 2.6690621005467129e+01 2.8934902914497744e+00 3.0700752874672141e+00 -1 0 0
210 1 3 3.3743769417296143e-01 2.7012894402766680e+01 8.5260854856343080e+00 4.4018357055057766e+00 0 0 0
211 1 3 2.9291771031927993e-01 9.6359101501792814e+00 7.1808927896125203e+00 1.0353115271486850e+01 0 0 -1
212 1 3 3.0970177859073872e-01 7.9821125142703400e+00 4.1139081400329323e+00 5.3667059830150521e-02 0 0 1
213 1 3 3.2528677508877879e-01 2.8693616150688154e+01 8.6399299395366622e+00 1.0725573045005195e+01 0 0 0
214 1 3 3.2240701152676121e-01 2.8631385566525442e+01 2.7928689186197380e+00 8.8895120254258941e+00 -1 0 -1
215 1 3 3.0587910759386766e-01 9.5657158754094684e+00 2.5655819063731276e+00 6.3889889826404476e+00 0 0 0
216 1 3 3.2268751109317639e-01 7.7751320152467782e+00 9.5490013425073226e+00 3.9085016711645917e+00 0 0 0
217 1 3 3.2951846962997650e-01 1.5822056059173951e+01 3.2595135441005874e+00 6.7758135973166098e+00 0 0 0
218 1 3 3.2360749974702963e-01 1.6373460042173960e+01 8.6946144736387510e+00 8.0189944897165368e+00 0 0 0
219 1 3 3.3306603008897195e-01 2.3640828966125468e+01 8.9344528455674865e+00 1.0416877313531518e+01 0 0 -1
220 1 3 3.1620933415772273e-01 2.4310210368865178e+01 3.8174212379321162e+00 1.0514640394855221e+01 0 0 0
221 1 3 3.1609862289938845e-01 1.4079997723560243e+01 8.8718850515407937e+00 1.3754313246850849e+00 0 0 1
222 1 3 3.2320307201763265e-01 1.5138178283566816e+01 2.9877906034618218e+00 4.7116498626701775e-01 0 0 0
223 1 3 3.2992840639729398e-01 2.1388850472957749e+01 2.8028921928275854e+00 5.8100614712108376e+00 0 0 0
224 1 3 3.2389615819682754e-01 2.1560486447383202e+01 8.8462610643182664e+00 5.2969858474296538e+00 0 0 0
225 1 3 3.2010664809406275e-01 1.8191415655443137e+00 4.9570802933041769e+00 -9.9767716010501051e-02 1 0 0
226 1 3 3.3456712264542637e-01 3.5765952760954338e+00 6.9231781736820128e+00 6.9535209402349683e+00 0 0 0
227 1 3 3.0745096240382730e-01 9.9018489042779514e+00 8.7051889790659356e+00 6.8346837632686093e+00 0 0 0
228 1 3 3.1579732401394939e-01 7.5351376081344936e+00 4.1882810042308343e+00 3.7699608282667167e+00 0 0 0
229 1 3 3.3463645397416419e-01 1.7259295807417612e+00 9.8960910108339846e+00 7.4330219588135216e-01 0 0 0
230 1 3 3.1213954482220324e-01 3.7111948395841421e+00 3.6447781810275898e-01 6.2252369048958416e+00 1 0 0
231 1 3 3.1109086006566594e-01 9.2721070383403585e+00 2.8083759194148255e+00 1.0146903406132171e+01 0 0 0
232 1 3 3.0409564985134807e-01 8.1079717766790935e+00 8.9060979855247968e+00 8.9401086956350184e-02 0 0 0
233 1 3 3.3733600457377955e-01 1.4168287208550097e+01 4.7357059455626267e+00 3.9575961775061357e+00 0 0 0
234 1 3 3.2477315158984377e-01 1.5844896902321883e+01 6.2394218431098638e+00 1.0494384931733844e+01 0 0 0
235 1 3 3.1996735945933391e-01 2.0597838586636250e+01 6.5121728798184169e+00 8.8211790811906070e+00 0 0 0
236 1 3 3.2815849054020368e-01 2.0242607520248406e+01 4.0430867383639502e+00 2.1940846112636989e+00 0 0 0
237 1 3 3.2989385673350313e-01 1.4166580538470724e+01 1.1024133432583067e+01 4.4887474784239840e+00 0 0 0
238 1 3 3.4063765539547436e-01 1.6422487911528989e+01 1.6464286630900618e+00 9.8459047583594028e+00 0 0 0
239 1 3 3.1859999452346982e-01 2.3458485912587928e+01 5.6403180719438972e-01 8.4051092047463918e+00 0 0 0
240 1 3 3.1829962416951252e-01 1.9985661750971271e+01 1.0217818528735199e+01 1.9702079591704362e+00 0 0 0
241 1 4 -3.4966170379878120e-01 5.0809032036931399e+00 6.0837243307213678e+00 2.1168575164430563e+00 0 0 0
242 1 4 -3.4926395504107743e-01 2.5541056874793139e+01 4.7284269523948437e+00 7.1603625982124610e+00 0 0 0
243 1 4 -3.2264478317890705e-01 7.2672908901888142e+00 5.8491024576178123e+00 7.1484282265997958e+00 0 0 0
244 1 4 -3.6239468529699143e-01 1.0572256203005894e+01 6.3860431982328256e+00 2.6603862040659170e+00 0 0 0
245 1 4 -3.5800841503606939e-01 2.4007553628567120e+01 1.0778550407993288e+00 4.9344465810399685e-01 0 0 0
246 1 4 -3.7229937032811988e-01 6.8561300884757559e+00 1.0954101563033435e+01 8.8557559167614848e+00 0 0 0
247 1 4 -3.4018741148585319e-01 1.2231202391572813e+01 1.1529348386572206e+01 9.2878614263471491e+00 0 0 0
248 1 4 -3.2114616827472919e-01 4.7715099040957325e+00 1.6377968070260401e-01 8.7794156735418261e-01 0 0 0
249 1 4 -3.5112766779696147e-01 1.7363915015876810e+01 7.1534962456092268e+00 3.9647451227774972e+00 0 0 0
250 1 4 -3.4190907642135537e-01 1.2877266323797063e+01 5.4755926527967729e+00 8.0722889688093957e+00 0 0 0
251 1 4 -3.6881329081399045e-01 1.6699384891443756e+01 5.5096393391583991e+00 4.0606499523852890e-01 0 0 1
252 1 4 -3.5270384907431057e-01 2.2896969840355890e+01 6.2949809055063017e+00 1.3846076856766434e+00 0 0 0
253 1 4 -3.5961279721464851e-01 1.0918684477488011e+01 1.2209504480174083e+00 2.7634074837925087e+00 0 0 0
254 1 4 -3.4290893077805384e-01 1.9564419985180770e+01 1.1057845845152404e+01 1.0362391875250662e+01 0 0 0
255 1 4 -3.6283668247535689e-01 2.5395071780747084e+01 1.1102203374684441e+01 4.7189004843318045e+00 0 0 0
256 1 4 -3.4673400799332732e-01 1.8101900790286557e+01 7.7377301013797650e-01 4.8582757803439520e+00 0 0 0
257 1 4 -2.9377504894782941e-01 3.8284080051207843e+00 5.2560811026794658e+00 3.7440225285823541e+00 0 0 0
258 1 4 -3.5181055859939370e-01 2.4535103607171390e+01 5.8155851401481575e+00 5.4725250548698323e+00 0 0 0
259 1 4 -3.5294871768770875e-01 6.2858597191860817e+00 5.4493073551424569e+00 9.1213055699482766e+00 0 0 0
260 1 4 -3.4554188512418860e-01 1.0920174747695313e+01 6.0021569645608492e+00 5.1908893089483188e-01 0 0 0
261 1 4 -3.1847402807371938e-01 2.6497328373666747e+01 1.9207858214107551e-01 1.1335080978538198e+01 0 0 -1
262 1 4 -3.1601833859655620e-01 5.9495678722964200e+00 8.2108192725586560e-01 1.0458194205084354e+01 0 1 0
263 1 4 -3.4162434318753965e-01 1.2480192625922577e+01 1.1601522763873813e+01 7.1068820047839001e+00 0 0 0
264 1 4 -3.6085598037953015e-01 4.7414745618851910e+00 1.6504062600746128e-01 3.0755398067819062e+00 0 0 0
265 1 4 -3.5582379516463897e-01 1.8409651551755800e+01 6.3038673692219707e+00 5.7521430386384926e+00 0 0 0
266 1 4 -3.1092336915211150e-01 1.3241362280220642e+01 7.0204563459344032e+00 6.5193113665612001e+00 0 0 0
267 1 4 -3.4284373218331149e-01 1.8420626698806156e+01 6.7051712575078568e+00 1.1633494286821073e+00 0 0 1
268 1 4 -3.4037123465023295e-01 2.6451856476978385e+01 6.1116267247879383e+00 1.1515028321946346e+01 0 0 -1
269 1 4 -3.4351613221781679e-01 1.0393292238069520e+01 2.2439089354303604e-01 8.5268837776710193e-01 0 0 0
270 1 4 -3.3701498081550957e-01 1.7556563285216299e+01 1.1512316725947814e+01 -7.1178910308008625e-01 0 0 1
271 1 4 -3.3757885711675967e-01 2.3316533417959192e+01 5.8304986123166314e-01 3.7349892446406212e+00 0 1 0
272 1 4 -3.4286938047929011e-01 1.9015288251518328e+01 1.1410378508905580e+01 6.8329255992452271e+00 0 -1 0
273 1 4 -3.6323615667533166e-01 2.5465693215135666e+01 2.9063578716467759e+00 2.7357590419535418e+00 0 0 0
274 1 4 -3.2951246081955332e-01 2.6847257919691927e+00 8.9416938469093523e+00 3.9997020647847839e+00 0 0 0
275 1 4 -3.6042202148910074e-01 1.0742196521054414e+01 7.0102203847442572e+00 9.7215847441798360e+00 0 0 -1
276 1 4 -3.4607288238786987e-01 6.7204602935826614e+00 4.1567139671548752e+00 2.2661116186871100e-01 0 0 1
277 1 4 -3.3708499002350939e-01 4.3351545830352576e+00 8.1580731873726560e+00 1.0366550897338829e+01 0 0 0
278 1 4 -3.4925061229228693e-01 2.7469073949731342e+01 2.6870083482726450e+00 8.4075420890198735e+00 0 0 -1
279 1 4 -3.6923485849639914e-01 8.3888631715014448e+00 2.5711697003564047e+00 6.8884003455219416e+00 0 0 0