ITEM: TIMESTEP
0
ITEM: NUMBER OF ATOMS
672
ITEM: BOX BOUNDS xy xz yz pp pp pp
0.0000000000000000e+00 2.9982000351000000e+01 0.0000000000000000e+00
0.0000000000000000e+00 1.2154000282300000e+01 0.0000000000000000e+00
0.0000000000000000e+00 2.0017000198400002e+01 0.0000000000000000e+00
ITEM: ATOMS id type xs ys zs
1 1 0.142882 0.0700589 0.154541
2 1 0.642882 0.0700589 0.154541
3 1 0.357118 0.929941 0.654541
4 1 0.857118 0.929941 0.654541
5 1 0.392882 0.929941 0.154541
6 1 0.892882 0.929941 0.154541
7 1 0.107118 0.0700588 0.654541
8 1 0.607118 0.0700589 0.654541
9 1 0.142882 0.570059 0.154541
10 1 0.642882 0.570059 0.154541
11 1 0.357118 0.429941 0.654541
12 1 0.857118 0.429941 0.654541
13 1 0.392882 0.429941 0.154541
14 1 0.892882 0.429941 0.154541
15 1 0.107118 0.570059 0.654541
16 1 0.607118 0.570059 0.654541
17 1 0.189426 0.0453706 0.151985
18 1 0.689426 0.0453706 0.151985
19 1 0.310574 0.954629 0.651985
20 1 0.810574 0.954629 0.651985
21 1 0.439426 0.954629 0.151985
22 1 0.939426 0.954629 0.151985
23 1 0.0605738 0.0453706 0.651985
24 1 0.560574 0.0453706 0.651985
25 1 0.189426 0.54537 0.151985
26 1 0.689426 0.54537 0.151985
27 1 0.310574 0.45463 0.651985
28 1 0.810574 0.45463 0.651985
29 1 0.439426 0.45463 0.151985
30 1 0.939426 0.45463 0.151985
31 1 0.0605738 0.54537 0.651985
32 1 0.560574 0.54537 0.651985
33 1 0.214583 0.115229 0.109978
34 1 0.714583 0.115229 0.109978
35 1 0.285417 0.884771 0.609978
36 1 0.785417 0.884771 0.609978
37 1 0.464583 0.884771 0.109978
38 1 0.964583 0.884771 0.109978
39 1 0.0354167 0.115229 0.609978
40 1 0.535417 0.115229 0.609978
41 1 0.214583 0.615229 0.109978
42 1 0.714583 0.615229 0.109978
43 1 0.285417 0.384771 0.609978
44 1 0.785417 0.384771 0.609978
45 1 0.464583 0.384771 0.109978
46 1 0.964583 0.384771 0.109978
47 1 0.0354168 0.615229 0.609978
48 1 0.535417 0.615229 0.609978
49 1 0.195411 0.203386 0.0724816
50 1 0.695411 0.203386 0.0724816
51 1 0.304589 0.796614 0.572482
52 1 0.804589 0.796614 0.572482
53 1 0.445411 0.796614 0.0724816
54 1 0.945411 0.796614 0.0724816
55 1 0.054589 0.203386 0.572482
56 1 0.554589 0.203386 0.572482
57 1 0.195411 0.703386 0.0724816
58 1 0.695411 0.703386 0.0724816
59 1 0.304589 0.296614 0.572482
60 1 0.804589 0.296614 0.572482
61 1 0.445411 0.296614 0.0724816
62 1 0.945411 0.296614 0.0724816
63 1 0.054589 0.703386 0.572482
64 1 0.554589 0.703386 0.572482
65 1 0.148504 0.221968 0.0788432
66 1 0.648504 0.221968 0.0788432
67 1 0.351496 0.778032 0.578843
68 1 0.851496 0.778032 0.578843
69 1 0.398504 0.778032 0.0788433
70 1 0.898504 0.778032 0.0788432
71 1 0.101496 0.221968 0.578843
72 1 0.601496 0.221968 0.578843
73 1 0.148504 0.721968 0.0788433
74 1 0.648504 0.721968 0.0788433
75 1 0.351496 0.278032 0.578843
76 1 0.851496 0.278032 0.578843
77 1 0.398504 0.278032 0.0788433
78 1 0.898504 0.278032 0.0788433
79 1 0.101496 0.721968 0.578843
80 1 0.601496 0.721968 0.578843
81 1 0.120404 0.155183 0.118549
82 1 0.620404 0.155183 0.118549
83 1 0.379596 0.844817 0.618549
84 1 0.879596 0.844817 0.618549
85 1 0.370404 0.844817 0.118549
86 1 0.870404 0.844817 0.118549
87 1 0.129596 0.155183 0.618549
88 1 0.629596 0.155183 0.618549
89 1 0.120404 0.655182 0.118549
90 1 0.620404 0.655182 0.118549
91 1 0.379596 0.344818 0.618549
92 1 0.879596 0.344818 0.618549
93 1 0.370404 0.344818 0.118549
94 1 0.870404 0.344818 0.118549
95 1 0.129596 0.655182 0.618549
96 1 0.629596 0.655182 0.618549
97 1 0.116048 0.999127 0.205641
98 1 0.616048 0.999127 0.205641
99 1 0.383952 0.00087263 0.705641
100 1 0.883952 0.000872663 0.705641
101 1 0.366048 0.000872624 0.205641
102 1 0.866048 0.000872656 0.205641
103 1 0.133952 0.999127 0.705641
104 1 0.633952 0.999127 0.705641
105 1 0.116048 0.499128 0.205641
106 1 0.616048 0.499127 0.205641
107 1 0.383952 0.500872 0.705641
108 1 0.883952 0.500873 0.705641
109 1 0.366048 0.500872 0.205641
110 1 0.866048 0.500873 0.205641
111 1 0.133952 0.499128 0.705641
112 1 0.633952 0.499127 0.705641
113 1 0.26428 0.183065 0.845678
114 1 0.76428 0.183064 0.845678
115 1 0.23572 0.816936 0.345678
116 1 0.73572 0.816936 0.345678
117 1 0.0142799 0.816936 0.845678
118 1 0.51428 0.816936 0.845678
119 1 0.48572 0.183065 0.345678
120 1 0.98572 0.183065 0.345678
121 1 0.26428 0.683064 0.845678
122 1 0.76428 0.683064 0.845679
123 1 0.23572 0.316936 0.345678
124 1 0.73572 0.316936 0.345679
125 1 0.01428 0.316936 0.845678
126 1 0.51428 0.316936 0.845679
127 1 0.48572 0.683064 0.345679
128 1 0.98572 0.683064 0.345679
129 1 0.311231 0.203675 0.847551
130 1 0.811231 0.203675 0.847551
131 1 0.188769 0.796325 0.347551
132 1 0.688769 0.796325 0.347551
133 1 0.0612313 0.796325 0.847551
134 1 0.561231 0.796325 0.847551
135 1 0.438769 0.203675 0.347551
136 1 0.938769 0.203675 0.347551
137 1 0.311231 0.703675 0.847551
138 1 0.811231 0.703675 0.847551
139 1 0.188769 0.296325 0.347551
140 1 0.688769 0.296325 0.347551
141 1 0.0612313 0.296325 0.847551
142 1 0.561231 0.296325 0.847551
143 1 0.438769 0.703675 0.347551
144 1 0.938769 0.703675 0.347551
145 1 0.336097 0.132164 0.889583
146 1 0.836097 0.132164 0.889583
147 1 0.163903 0.867836 0.389583
148 1 0.663902 0.867836 0.389583
149 1 0.0860975 0.867836 0.889583
150 1 0.586098 0.867836 0.889583
151 1 0.413903 0.132164 0.389583
152 1 0.913903 0.132164 0.389583
153 1 0.336097 0.632164 0.889583
154 1 0.836098 0.632164 0.889583
155 1 0.163903 0.367836 0.389583
156 1 0.663902 0.367836 0.389583
157 1 0.0860974 0.367836 0.889583
158 1 0.586098 0.367836 0.889583
159 1 0.413903 0.632164 0.389583
160 1 0.913903 0.632164 0.389583
161 1 0.3176 0.0415564 0.924993
162 1 0.8176 0.0415565 0.924993
163 1 0.1824 0.958444 0.424993
164 1 0.6824 0.958444 0.424993
165 1 0.0675998 0.958444 0.924993
166 1 0.5676 0.958444 0.924993
167 1 0.4324 0.0415564 0.424993
168 1 0.9324 0.0415565 0.424993
169 1 0.3176 0.541556 0.924993
170 1 0.8176 0.541556 0.924993
171 1 0.1824 0.458444 0.424993
172 1 0.6824 0.458444 0.424993
173 1 0.0675998 0.458444 0.924993
174 1 0.5676 0.458444 0.924993
175 1 0.4324 0.541556 0.424993
176 1 0.9324 0.541556 0.424993
177 1 0.270813 0.024243 0.917787
178 1 0.770813 0.024243 0.917787
179 1 0.229187 0.975757 0.417787
180 1 0.729187 0.975757 0.417787
181 1 0.0208132 0.975757 0.917787
182 1 0.520813 0.975757 0.917787
183 1 0.479187 0.024243 0.417787
184 1 0.979187 0.024243 0.417787
185 1 0.270813 0.524243 0.917787
186 1 0.770813 0.524243 0.917787
187 1 0.229187 0.475757 0.417787
188 1 0.729187 0.475757 0.417787
189 1 0.0208132 0.475757 0.917787
190 1 0.520813 0.475757 0.917787
191 1 0.479187 0.524243 0.417787
192 1 0.979187 0.524243 0.417787
193 1 0.242973 0.0958497 0.880774
194 1 0.742974 0.0958496 0.880774
195 1 0.257026 0.90415 0.380774
196 1 0.757026 0.90415 0.380774
197 1 0.492974 0.90415 0.880774
198 1 0.992974 0.90415 0.880774
199 1 0.00702646 0.0958496 0.380774
200 1 0.507026 0.0958496 0.380774
201 1 0.242974 0.59585 0.880774
202 1 0.742974 0.595849 0.880774
203 1 0.257026 0.404151 0.380774
204 1 0.757026 0.404151 0.380774
205 1 0.492974 0.404151 0.880774
206 1 0.992974 0.404151 0.880774
207 1 0.00702628 0.595849 0.380774
208 1 0.507026 0.595849 0.380774
209 1 0.231795 0.2501 0.799668
210 1 0.731795 0.2501 0.799668
211 1 0.268205 0.7499 0.299668
212 1 0.768205 0.7499 0.299668
213 1 0.481795 0.7499 0.799668
214 1 0.981795 0.7499 0.799668
215 1 0.0182047 0.2501 0.299668
216 1 0.518205 0.2501 0.299668
217 1 0.231795 0.7501 0.799668
218 1 0.731795 0.7501 0.799668
219 1 0.268205 0.2499 0.299668
220 1 0.768205 0.2499 0.299668
221 1 0.481795 0.2499 0.799668
222 1 0.981795 0.2499 0.799668
223 1 0.0182047 0.7501 0.299668
224 1 0.518205 0.7501 0.299668
225 2 0.212313 0.955211 0.193772
226 2 0.712313 0.955211 0.193772
227 2 0.287687 0.0447893 0.693772
228 2 0.787687 0.0447892 0.693772
229 2 0.462313 0.0447894 0.193772
230 2 0.962313 0.0447893 0.193772
231 2 0.037687 0.955211 0.693772
232 2 0.537687 0.955211 0.693772
233 2 0.212313 0.45521 0.193772
234 2 0.712313 0.45521 0.193772
235 2 0.287687 0.54479 0.693772
236 2 0.787687 0.54479 0.693772
237 2 0.462313 0.54479 0.193772
238 2 0.962313 0.54479 0.193772
239 2 0.0376869 0.45521 0.693772
240 2 0.537687 0.45521 0.693772
241 2 0.223866 0.273297 0.0263286
242 2 0.723866 0.273297 0.0263286
243 2 0.276134 0.726703 0.526329
244 2 0.776134 0.726703 0.526329
245 2 0.473866 0.726703 0.0263286
246 2 0.973866 0.726703 0.0263286
247 2 0.0261337 0.273297 0.526329
248 2 0.526134 0.273297 0.526329
249 2 0.223866 0.773297 0.0263286
250 2 0.723866 0.773297 0.0263286
251 2 0.276134 0.226703 0.526329
252 2 0.776134 0.226703 0.526329
253 2 0.473866 0.226703 0.0263286
254 2 0.973866 0.226703 0.0263286
255 2 0.0261337 0.773297 0.526329
256 2 0.526134 0.773297 0.526329
257 2 0.0696904 0.175917 0.12172
258 2 0.56969 0.175917 0.12172
259 2 0.43031 0.824083 0.62172
260 2 0.93031 0.824083 0.62172
261 2 0.31969 0.824083 0.12172
262 2 0.81969 0.824083 0.12172
263 2 0.18031 0.175917 0.62172
264 2 0.68031 0.175917 0.62172
265 2 0.0696903 0.675917 0.12172
266 2 0.56969 0.675917 0.12172
267 2 0.43031 0.324083 0.62172
268 2 0.93031 0.324083 0.62172
269 2 0.31969 0.324083 0.12172
270 2 0.81969 0.324083 0.12172
271 2 0.18031 0.675917 0.62172
272 2 0.68031 0.675917 0.62172
273 2 0.335359 0.291842 0.806557
274 2 0.835359 0.291842 0.806557
275 2 0.164641 0.708158 0.306556
276 2 0.664641 0.708158 0.306556
277 2 0.0853589 0.708158 0.806556
278 2 0.585359 0.708158 0.806556
279 2 0.414641 0.291842 0.306557
280 2 0.914641 0.291842 0.306557
281 2 0.335359 0.791842 0.806557
282 2 0.835359 0.791842 0.806556
283 2 0.164641 0.208158 0.306557
284 2 0.664641 0.208158 0.306556
285 2 0.0853588 0.208158 0.806557
286 2 0.585359 0.208158 0.806556
287 2 0.414641 0.791842 0.306557
288 2 0.914641 0.791842 0.306557
289 2 0.345937 0.966905 0.969559
290 2 0.845937 0.966904 0.969559
291 2 0.154063 0.0330956 0.469559
292 2 0.654063 0.0330957 0.469559
293 2 0.0959371 0.0330957 0.969559
294 2 0.595937 0.0330957 0.969559
295 2 0.404063 0.966904 0.469559
296 2 0.904063 0.966905 0.469559
297 2 0.345937 0.466904 0.969559
298 2 0.845937 0.466904 0.969559
299 2 0.154063 0.533096 0.469559
300 2 0.654063 0.533096 0.469559
301 2 0.0959371 0.533096 0.969559
302 2 0.595937 0.533096 0.969559
303 2 0.404063 0.466904 0.469559
304 2 0.904063 0.466904 0.469559
305 2 0.192027 0.0771098 0.880248
306 2 0.692027 0.0771098 0.880248
307 2 0.307973 0.92289 0.380248
308 2 0.807973 0.92289 0.380248
309 2 0.442027 0.92289 0.880248
310 2 0.942027 0.92289 0.880248
311 2 0.0579731 0.0771098 0.380248
312 2 0.557973 0.0771098 0.380248
313 2 0.192027 0.57711 0.880248
314 2 0.692027 0.57711 0.880248
315 2 0.307973 0.42289 0.380248
316 2 0.807973 0.42289 0.380248
317 2 0.442027 0.42289 0.880248
318 2 0.942027 0.42289 0.880248
319 2 0.057973 0.57711 0.380248
320 2 0.557973 0.57711 0.380248
321 3 0.193857 0.859729 0.195956
322 3 0.693857 0.859729 0.195956
323 3 0.306143 0.140271 0.695956
324 3 0.806143 0.140271 0.695956
325 3 0.443857 0.140271 0.195956
326 3 0.943857 0.140271 0.195956
327 3 0.056143 0.859729 0.695956
328 3 0.556143 0.859729 0.695956
329 3 0.193857 0.359729 0.195956
330 3 0.693857 0.359729 0.195956
331 3 0.306143 0.640271 0.695956
332 3 0.806143 0.640271 0.695956
333 3 0.443857 0.640271 0.195956
334 3 0.943857 0.640271 0.195956
335 3 0.0561431 0.359729 0.695956
336 3 0.556143 0.359729 0.695956
337 3 0.24889 0.981953 0.22327
338 3 0.74889 0.981953 0.22327
339 3 0.25111 0.0180469 0.72327
340 3 0.75111 0.018047 0.72327
341 3 0.49889 0.0180469 0.22327
342 3 0.99889 0.018047 0.22327
343 3 0.00110995 0.981953 0.72327
344 3 0.50111 0.981953 0.72327
345 3 0.24889 0.481953 0.22327
346 3 0.74889 0.481953 0.22327
347 3 0.25111 0.518047 0.72327
348 3 0.75111 0.518047 0.72327
349 3 0.49889 0.518047 0.22327
350 3 0.99889 0.518047 0.22327
351 3 0.00111008 0.481953 0.72327
352 3 0.50111 0.481953 0.72327
353 3 0.260545 0.230527 0.00452042
354 3 0.760545 0.230527 0.00452045
355 3 0.239455 0.769473 0.50452
356 3 0.739455 0.769473 0.50452
357 3 0.0105452 0.769473 0.00452048
358 3 0.510545 0.769473 0.00452047
359 3 0.489455 0.230527 0.50452
360 3 0.989455 0.230527 0.50452
361 3 0.260545 0.730527 0.00452044
362 3 0.760545 0.730527 0.00452048
363 3 0.239455 0.269473 0.50452
364 3 0.739455 0.269473 0.50452
365 3 0.0105452 0.269473 0.00452046
366 3 0.510545 0.269473 0.00452046
367 3 0.489455 0.730527 0.50452
368 3 0.989455 0.730527 0.50452
369 3 0.208526 0.369212 0.0106716
370 3 0.708526 0.369212 0.0106716
371 3 0.291474 0.630788 0.510672
372 3 0.791474 0.630788 0.510672
373 3 0.458526 0.630788 0.0106716
374 3 0.958526 0.630788 0.0106716
375 3 0.0414738 0.369212 0.510672
376 3 0.541474 0.369212 0.510672
377 3 0.208526 0.869212 0.0106716
378 3 0.708526 0.869212 0.0106716
379 3 0.291474 0.130788 0.510672
380 3 0.791474 0.130788 0.510672
381 3 0.458526 0.130788 0.0106716
382 3 0.958526 0.130788 0.0106716
383 3 0.0414738 0.869212 0.510672
384 3 0.541474 0.869212 0.510672
385 3 0.0567606 0.274383 0.135252
386 3 0.556761 0.274383 0.135252
387 3 0.443239 0.725617 0.635252
388 3 0.943239 0.725617 0.635252
389 3 0.306761 0.725617 0.135252
390 3 0.806761 0.725617 0.135252
391 3 0.193239 0.274383 0.635252
392 3 0.693239 0.274383 0.635252
393 3 0.0567606 0.774383 0.135252
394 3 0.556761 0.774383 0.135252
395 3 0.443239 0.225617 0.635252
396 3 0.943239 0.225617 0.635252
397 3 0.306761 0.225617 0.135252
398 3 0.806761 0.225617 0.135252
399 3 0.193239 0.774383 0.635252
400 3 0.693239 0.774383 0.635252
401 3 0.0440876 0.0924402 0.112563
402 3 0.544088 0.0924402 0.112563
403 3 0.455912 0.90756 0.612563
404 3 0.955912 0.90756 0.612563
405 3 0.294088 0.90756 0.112563
406 3 0.794088 0.90756 0.112563
407 3 0.205912 0.0924402 0.612563
408 3 0.705912 0.0924402 0.612563
409 3 0.0440877 0.59244 0.112563
410 3 0.544088 0.59244 0.112563
411 3 0.455912 0.40756 0.612563
412 3 0.955912 0.40756 0.612563
413 3 0.294088 0.40756 0.112563
414 3 0.794088 0.40756 0.112563
415 3 0.205912 0.59244 0.612563
416 3 0.705912 0.59244 0.612563
417 3 0.316518 0.386717 0.802315
418 3 0.816518 0.386717 0.802315
419 3 0.183482 0.613283 0.302315
420 3 0.683482 0.613283 0.302315
421 3 0.0665183 0.613283 0.802315
422 3 0.566518 0.613283 0.802315
423 3 0.433482 0.386717 0.302315
424 3 0.933482 0.386717 0.302315
425 3 0.316518 0.886717 0.802315
426 3 0.816518 0.886717 0.802315
427 3 0.183482 0.113283 0.302315
428 3 0.683482 0.113283 0.302315
429 3 0.0665182 0.113283 0.802315
430 3 0.566518 0.113283 0.802315
431 3 0.433482 0.886717 0.302315
432 3 0.933482 0.886717 0.302315
433 3 0.373002 0.265026 0.780044
434 3 0.873002 0.265026 0.780044
435 3 0.126998 0.734974 0.280044
436 3 0.626998 0.734973 0.280044
437 3 0.123002 0.734974 0.780044
438 3 0.623002 0.734974 0.780044
439 3 0.376998 0.265026 0.280044
440 3 0.876998 0.265026 0.280044
441 3 0.373002 0.765026 0.780044
442 3 0.873002 0.765027 0.780044
443 3 0.126998 0.234974 0.280044
444 3 0.626998 0.234973 0.280044
445 3 0.123002 0.234974 0.780044
446 3 0.623002 0.234973 0.780044
447 3 0.376998 0.765026 0.280044
448 3 0.876998 0.765026 0.280044
449 3 0.379607 0.0111945 0.998967
450 3 0.879607 0.0111945 0.998967
451 3 0.120393 0.988805 0.498967
452 3 0.620393 0.988805 0.498967
453 3 0.129607 0.988805 0.998967
454 3 0.629607 0.988805 0.998967
455 3 0.370393 0.0111945 0.498967
456 3 0.870393 0.0111945 0.498967
457 3 0.379607 0.511195 0.998967
458 3 0.879607 0.511195 0.998967
459 3 0.120393 0.488805 0.498967
460 3 0.620393 0.488805 0.498967
461 3 0.129607 0.488805 0.998967
462 3 0.629607 0.488805 0.998967
463 3 0.370393 0.511195 0.498967
464 3 0.870393 0.511195 0.498967
465 3 0.333826 0.865738 0.975299
466 3 0.833826 0.865738 0.975299
467 3 0.166174 0.134261 0.475299
468 3 0.666174 0.134261 0.475299
469 3 0.083826 0.134261 0.975299
470 3 0.583826 0.134261 0.975299
471 3 0.416174 0.865738 0.475299
472 3 0.916174 0.865738 0.475299
473 3 0.333826 0.365739 0.975299
474 3 0.833826 0.365739 0.975299
475 3 0.166174 0.634261 0.475299
476 3 0.666174 0.634261 0.475299
477 3 0.0838259 0.634261 0.975299
478 3 0.583826 0.634261 0.975299
479 3 0.416174 0.365739 0.475299
480 3 0.916174 0.365739 0.475299
481 3 0.178042 0.983113 0.85896
482 3 0.678042 0.983112 0.85896
483 3 0.321958 0.016888 0.358959
484 3 0.821958 0.0168884 0.358959
485 3 0.428042 0.0168885 0.858959
486 3 0.928042 0.016888 0.858959
487 3 0.0719583 0.983113 0.35896
488 3 0.571958 0.983113 0.35896
489 3 0.178042 0.483112 0.858959
490 3 0.678042 0.483112 0.858959
491 3 0.321958 0.516888 0.358959
492 3 0.821958 0.516888 0.358959
493 3 0.428042 0.516888 0.858959
494 3 0.928042 0.516888 0.858959
495 3 0.0719582 0.483112 0.358959
496 3 0.571958 0.483112 0.358959
497 3 0.167518 0.157891 0.900136
498 3 0.667518 0.157891 0.900136
499 3 0.332482 0.842108 0.400136
500 3 0.832482 0.842108 0.400136
501 3 0.417518 0.842108 0.900136
502 3 0.917518 0.842108 0.900136
503 3 0.0824819 0.157891 0.400136
504 3 0.582482 0.157891 0.400136
505 3 0.167518 0.657891 0.900136
506 3 0.667518 0.657892 0.900136
507 3 0.332482 0.342108 0.400136
508 3 0.832482 0.342108 0.400136
509 3 0.417518 0.342108 0.900136
510 3 0.917518 0.342108 0.900136
511 3 0.0824819 0.657892 0.400136
512 3 0.582482 0.657892 0.400136
513 4 0.136462 0.969739 0.248076
514 4 0.636462 0.969739 0.248076
515 4 0.363538 0.0302613 0.748076
516 4 0.863538 0.0302613 0.748076
517 4 0.386462 0.0302613 0.248076
518 4 0.886462 0.0302613 0.248076
519 4 0.113538 0.969739 0.748076
520 4 0.613538 0.969739 0.748076
521 4 0.136462 0.469739 0.248076
522 4 0.636462 0.469739 0.248076
523 4 0.363538 0.530261 0.748076
524 4 0.863538 0.530261 0.748076
525 4 0.386462 0.530261 0.248076
526 4 0.886462 0.530261 0.248076
527 4 0.113538 0.469739 0.748076
528 4 0.613538 0.469739 0.748076
529 4 0.101563 0.92381 0.183793
530 4 0.601562 0.92381 0.183793
531 4 0.398437 0.0761899 0.683793
532 4 0.898437 0.0761899 0.683793
533 4 0.351563 0.0761899 0.183793
534 4 0.851563 0.0761899 0.183793
535 4 0.148437 0.92381 0.683793
536 4 0.648438 0.92381 0.683793
537 4 0.101562 0.42381 0.183793
538 4 0.601562 0.42381 0.183793
539 4 0.398438 0.57619 0.683793
540 4 0.898437 0.57619 0.683793
541 4 0.351562 0.57619 0.183793
542 4 0.851562 0.57619 0.183793
543 4 0.148438 0.42381 0.683793
544 4 0.648438 0.42381 0.683793
545 4 0.0873864 0.0420086 0.228252
546 4 0.587386 0.0420086 0.228252
547 4 0.412614 0.957991 0.728252
548 4 0.912614 0.957991 0.728252
549 4 0.337386 0.957991 0.228252
550 4 0.837386 0.957991 0.228252
551 4 0.162614 0.0420086 0.728252
552 4 0.662614 0.0420086 0.728252
553 4 0.0873864 0.542009 0.228252
554 4 0.587386 0.542009 0.228252
555 4 0.412614 0.457991 0.728252
556 4 0.912614 0.457991 0.728252
557 4 0.337386 0.457991 0.228252
558 4 0.837386 0.457991 0.228252
559 4 0.162614 0.542009 0.728252
560 4 0.662614 0.542009 0.728252
561 4 0.250711 0.100541 0.106803
562 4 0.750711 0.100541 0.106803
563 4 0.249289 0.899459 0.606803
564 4 0.749289 0.899459 0.606803
565 4 0.500711 0.899459 0.106803
566 4 0.000710981 0.899459 0.106803
567 4 0.999289 0.100541 0.606803
568 4 0.499289 0.100541 0.606803
569 4 0.250711 0.600541 0.106803
570 4 0.750711 0.600541 0.106803
571 4 0.249289 0.399459 0.606803
572 4 0.749289 0.399459 0.606803
573 4 0.500711 0.399459 0.106803
574 4 0.000711162 0.399459 0.106803
575 4 0.999289 0.600541 0.606803
576 4 0.499289 0.600541 0.606803
577 4 0.133292 0.289533 0.0499782
578 4 0.633292 0.289533 0.0499782
579 4 0.366708 0.710467 0.549978
580 4 0.866708 0.710467 0.549978
581 4 0.383292 0.710467 0.0499782
582 4 0.883292 0.710467 0.0499782
583 4 0.116708 0.289533 0.549978
584 4 0.616708 0.289533 0.549978
585 4 0.133292 0.789533 0.0499782
586 4 0.633292 0.789533 0.0499782
587 4 0.366708 0.210467 0.549978
588 4 0.866708 0.210467 0.549978
589 4 0.383292 0.210467 0.0499782
590 4 0.883292 0.210467 0.0499782
591 4 0.116708 0.789533 0.549978
592 4 0.616708 0.789533 0.549978
593 4 0.247723 0.28447 0.754761
594 4 0.747723 0.28447 0.754761
595 4 0.252277 0.71553 0.254762
596 4 0.752277 0.71553 0.254762
597 4 0.497723 0.71553 0.754762
598 4 0.997723 0.71553 0.754762
599 4 0.00227695 0.28447 0.254761
600 4 0.502277 0.28447 0.254761
601 4 0.247723 0.78447 0.754762
602 4 0.747723 0.78447 0.754762
603 4 0.252277 0.21553 0.254762
604 4 0.752277 0.21553 0.254762
605 4 0.497723 0.21553 0.754762
606 4 0.997723 0.21553 0.754762
607 4 0.00227697 0.78447 0.254762
608 4 0.502277 0.78447 0.254762
609 4 0.203812 0.199942 0.781068
610 4 0.703812 0.199942 0.781068
611 4 0.296188 0.800058 0.281068
612 4 0.796188 0.800058 0.281068
613 4 0.453812 0.800058 0.781068
614 4 0.953812 0.800058 0.781068
615 4 0.0461879 0.199942 0.281068
616 4 0.546188 0.199942 0.281068
617 4 0.203812 0.699942 0.781068
618 4 0.703812 0.699942 0.781068
619 4 0.296188 0.300058 0.281068
620 4 0.796188 0.300058 0.281068
621 4 0.453812 0.300058 0.781068
622 4 0.953812 0.300058 0.781068
623 4 0.0461878 0.699942 0.281068
624 4 0.546188 0.699942 0.281068
625 4 0.216198 0.320465 0.825287
626 4 0.716198 0.320464 0.825287
627 4 0.283802 0.679536 0.325287
628 4 0.783802 0.679536 0.325287
629 4 0.466198 0.679536 0.825287
630 4 0.966198 0.679536 0.825287
631 4 0.0338025 0.320465 0.325287
632 4 0.533802 0.320465 0.325287
633 4 0.216198 0.820464 0.825287
634 4 0.716198 0.820464 0.825287
635 4 0.283802 0.179536 0.325287
636 4 0.783802 0.179536 0.325287
637 4 0.466198 0.179536 0.825287
638 4 0.966198 0.179536 0.825287
639 4 0.0338024 0.820464 0.325287
640 4 0.533802 0.820464 0.325287
641 4 0.372098 0.146029 0.894006
642 4 0.872098 0.146029 0.894006
643 4 0.127902 0.853971 0.394006
644 4 0.627902 0.853971 0.394006
645 4 0.122098 0.853971 0.894006
646 4 0.622098 0.853971 0.894006
647 4 0.377902 0.146029 0.394006
648 4 0.877902 0.146029 0.394006
649 4 0.372098 0.646029 0.894006
650 4 0.872098 0.646029 0.894006
651 4 0.127902 0.353971 0.394006
652 4 0.627902 0.353971 0.394006
653 4 0.122098 0.353971 0.894006
654 4 0.622098 0.353971 0.894006
655 4 0.377902 0.646029 0.394006
656 4 0.877902 0.646029 0.394006
657 4 0.25534 0.954744 0.944516
658 4 0.75534 0.954744 0.944516
659 4 0.24466 0.0452561 0.444516
660 4 0.74466 0.0452561 0.444516
661 4 0.00534001 0.0452561 0.944516
662 4 0.50534 0.0452561 0.944516
663 4 0.49466 0.954744 0.444516
664 4 0.99466 0.954744 0.444516
665 4 0.25534 0.454744 0.944516
666 4 0.75534 0.454744 0.944516
667 4 0.24466 0.545256 0.444516
668 4 0.74466 0.545256 0.444516
669 4 0.0053401 0.545256 0.944516
670 4 0.50534 0.545256 0.944516
671 4 0.49466 0.454744 0.444516
672 4 0.99466 0.454744 0.444516
ITEM: TIMESTEP
1000
ITEM: NUMBER OF ATOMS
672
ITEM: BOX BOUNDS xy xz yz pp pp pp
-1.2592752800141753e+00 3.0985042797042389e+01 -3.4032662208625847e-01
-2.1187212043795275e-01 1.2174250883971570e+01 8.4093788114429385e-02
-7.4946397246340091e-01 2.0766464170863372e+01 -1.9162151876637809e-01
ITEM: ATOMS id type xs ys zs
1 1 0.148113 0.0263307 0.149416
2 1 0.644869 0.042162 0.149199
3 1 0.344161 0.954994 0.652658
4 1 0.861085 0.956633 0.680411
5 1 0.393128 0.957851 0.167929
6 1 0.908737 0.934899 0.139431
7 1 0.112008 0.0332131 0.665594
8 1 0.606176 0.0611494 0.640402
9 1 0.13767 0.566204 0.146883
10 1 0.642107 0.538211 0.15789
11 1 0.338696 0.451149 0.673575
12 1 0.852645 0.435227 0.686061
13 1 0.388254 0.462198 0.168016
14 1 0.89674 0.456803 0.149072
15 1 0.112406 0.534473 0.659205
16 1 0.607077 0.56432 0.666161
17 1 0.193689 0.0170532 0.147168
18 1 0.688284 0.0148361 0.147321
19 1 0.300973 0.98181 0.645617
20 1 0.817686 0.984391 0.670585
21 1 0.43872 0.96312 0.169201
22 1 0.953517 0.944639 0.135033
23 1 0.0682105 0.00613909 0.663408
24 1 0.562956 0.0277931 0.641786
25 1 0.182669 0.566721 0.147021
26 1 0.685599 0.520682 0.149999
27 1 0.294415 0.470159 0.668338
28 1 0.810159 0.455881 0.675165
29 1 0.43199 0.48485 0.168107
30 1 0.940075 0.488687 0.142892
31 1 0.0680862 0.509225 0.659881
32 1 0.562941 0.531565 0.661034
33 1 0.213001 0.0908256 0.106021
34 1 0.712809 0.0737848 0.10399
35 1 0.280321 0.931959 0.594406
36 1 0.796258 0.926008 0.620059
37 1 0.46075 0.897969 0.125179
38 1 0.974112 0.871207 0.0915929
39 1 0.0435193 0.0672525 0.620863
40 1 0.532019 0.0722324 0.602959
41 1 0.201353 0.63804 0.104098
42 1 0.70909 0.573534 0.102916
43 1 0.275053 0.400031 0.623035
44 1 0.790826 0.392533 0.625658
45 1 0.456612 0.433126 0.121719
46 1 0.963566 0.439122 0.0948163
47 1 0.0432123 0.563927 0.615766
48 1 0.544443 0.585563 0.611809
49 1 0.194181 0.170729 0.0670057
50 1 0.697499 0.165393 0.0713097
51 1 0.297515 0.860646 0.548733
52 1 0.810269 0.827282 0.592511
53 1 0.441144 0.83101 0.0767963
54 1 0.952225 0.778403 0.0622752
55 1 0.0605304 0.154838 0.583948
56 1 0.544466 0.161351 0.563198
57 1 0.1811 0.711813 0.062615
58 1 0.690382 0.653488 0.0636415
59 1 0.292562 0.319654 0.582237
60 1 0.808883 0.303011 0.595891
61 1 0.442084 0.353037 0.0777308
62 1 0.94872 0.346785 0.058614
63 1 0.0590129 0.648448 0.574374
64 1 0.560837 0.673441 0.575108
65 1 0.149172 0.178375 0.0722724
66 1 0.655066 0.199439 0.0820462
67 1 0.339797 0.832452 0.559027
68 1 0.85002 0.794745 0.615999
69 1 0.396651 0.829738 0.0764871
70 1 0.908624 0.770928 0.0763849
71 1 0.103524 0.182637 0.592178
72 1 0.588181 0.188133 0.562166
73 1 0.136899 0.715919 0.0720239
74 1 0.646687 0.671622 0.0741656
75 1 0.336496 0.296412 0.594357
76 1 0.852256 0.28718 0.612532
77 1 0.398849 0.328723 0.0851136
78 1 0.906095 0.317102 0.0671144
79 1 0.101124 0.682351 0.587271
80 1 0.604263 0.707453 0.589672
81 1 0.127511 0.108739 0.116692
82 1 0.628528 0.137204 0.12181
83 1 0.362117 0.874618 0.612404
84 1 0.877061 0.860826 0.654712
85 1 0.374067 0.891093 0.120927
86 1 0.886293 0.843312 0.113093
87 1 0.130831 0.12258 0.631339
88 1 0.618604 0.156526 0.607206
89 1 0.114727 0.641502 0.111091
90 1 0.622417 0.615439 0.120088
91 1 0.359059 0.368264 0.637247
92 1 0.876126 0.357099 0.652179
93 1 0.370875 0.381019 0.12687
94 1 0.880899 0.367379 0.113974
95 1 0.129134 0.62577 0.626681
96 1 0.627043 0.649535 0.633628
97 1 0.122409 0.94404 0.190494
98 1 0.613182 0.96315 0.182573
99 1 0.37058 0.0114595 0.705808
100 1 0.889096 0.0119061 0.730929
101 1 0.36652 0.0206785 0.21568
102 1 0.879934 0.0125063 0.177864
103 1 0.139871 0.976024 0.715354
104 1 0.637076 0.0120571 0.687334
105 1 0.111561 0.479748 0.184274
106 1 0.616845 0.492882 0.215465
107 1 0.367279 0.533059 0.709842
108 1 0.875356 0.505689 0.735396
109 1 0.355801 0.508699 0.215718
110 1 0.869732 0.501419 0.202
111 1 0.144299 0.479787 0.703252
112 1 0.636809 0.503307 0.710216
113 1 0.276126 0.186058 0.846503
114 1 0.777734 0.16883 0.858965
115 1 0.224095 0.876614 0.3416
116 1 0.731936 0.843932 0.339886
117 1 0.0273513 0.787182 0.84306
118 1 0.524405 0.814004 0.838688
119 1 0.485353 0.17933 0.360166
120 1 0.979963 0.149724 0.337433
121 1 0.274931 0.683958 0.84496
122 1 0.76181 0.685067 0.84838
123 1 0.220473 0.342769 0.339308
124 1 0.718238 0.301412 0.335122
125 1 0.0295001 0.332346 0.846775
126 1 0.535413 0.264269 0.84156
127 1 0.476166 0.69467 0.352364
128 1 0.977602 0.698649 0.327313
129 1 0.319763 0.204576 0.846452
130 1 0.821773 0.197335 0.863502
131 1 0.182086 0.838124 0.342623
132 1 0.689123 0.813704 0.360599
133 1 0.0726546 0.7904 0.841143
134 1 0.568741 0.796682 0.845291
135 1 0.44111 0.193318 0.366681
136 1 0.936174 0.17437 0.334613
137 1 0.319692 0.693625 0.843524
138 1 0.805032 0.722448 0.862671
139 1 0.17892 0.297323 0.350133
140 1 0.673158 0.288384 0.337241
141 1 0.0738626 0.310633 0.850974
142 1 0.579737 0.252679 0.848357
143 1 0.43063 0.705187 0.350804
144 1 0.93377 0.717908 0.336689
145 1 0.344168 0.13822 0.885598
146 1 0.844463 0.119346 0.899959
147 1 0.153076 0.892196 0.381312
148 1 0.67056 0.882371 0.406755
149 1 0.0900077 0.879807 0.87481
150 1 0.59141 0.857382 0.889545
151 1 0.418058 0.116875 0.405597
152 1 0.908448 0.116949 0.373438
153 1 0.342047 0.618872 0.879683
154 1 0.826054 0.659926 0.905035
155 1 0.156496 0.357154 0.39598
156 1 0.651044 0.357745 0.378672
157 1 0.0974612 0.379152 0.89
158 1 0.602508 0.321665 0.892122
159 1 0.406829 0.634261 0.390139
160 1 0.911194 0.651058 0.38076
161 1 0.324547 0.051881 0.920068
162 1 0.826065 0.0326677 0.934453
163 1 0.16956 0.977944 0.421937
164 1 0.691913 0.97476 0.434448
165 1 0.0668168 0.955943 0.911235
166 1 0.572452 0.944743 0.919842
167 1 0.438637 0.0361098 0.437969
168 1 0.922908 0.0438898 0.421412
169 1 0.319859 0.541074 0.916923
170 1 0.810479 0.561999 0.932886
171 1 0.1732 0.455899 0.42275
172 1 0.672295 0.437289 0.417176
173 1 0.0798714 0.47172 0.91958
174 1 0.583711 0.408069 0.925914
175 1 0.427225 0.550327 0.422114
176 1 0.929242 0.556906 0.409107
177 1 0.280481 0.039097 0.919004
178 1 0.781759 0.0098259 0.921787
179 1 0.210589 0.0235334 0.408737
180 1 0.729811 0.0136133 0.401631
181 1 0.0217204 0.938766 0.91143
182 1 0.529405 0.971074 0.905975
183 1 0.48016 0.0145345 0.413954
184 1 0.966026 0.00803106 0.412991
185 1 0.275539 0.53189 0.913399
186 1 0.769946 0.525398 0.912322
187 1 0.213054 0.495955 0.401682
188 1 0.715318 0.460898 0.402395
189 1 0.0370217 0.498699 0.903535
190 1 0.540589 0.420402 0.910005
191 1 0.471708 0.535896 0.412844
192 1 0.971675 0.537054 0.393095
193 1 0.254944 0.10755 0.883874
194 1 0.756523 0.0768383 0.883929
195 1 0.241624 0.976835 0.368635
196 1 0.752199 0.942662 0.362131
197 1 0.503322 0.900439 0.870443
198 1 0.999923 0.860656 0.873911
199 1 0.995555 0.065688 0.374223
200 1 0.507157 0.0839508 0.379978
201 1 0.251423 0.597576 0.874382
202 1 0.744093 0.588696 0.872901
203 1 0.241778 0.437602 0.363512
204 1 0.73892 0.3977 0.35877
205 1 0.514286 0.3536 0.872887
206 1 0.00936761 0.426271 0.870611
207 1 0.997339 0.607769 0.355278
208 1 0.498992 0.606795 0.378767
209 1 0.246179 0.260441 0.808161
210 1 0.747979 0.236222 0.817242
211 1 0.257356 0.799445 0.311287
212 1 0.752766 0.761065 0.295522
213 1 0.497217 0.738439 0.795413
214 1 0.00767893 0.702005 0.796182
215 1 0.0125047 0.223252 0.300668
216 1 0.51251 0.251527 0.314548
217 1 0.246268 0.762521 0.809905
218 1 0.734072 0.747202 0.802204
219 1 0.248719 0.28082 0.292317
220 1 0.746239 0.224111 0.295757
221 1 0.509587 0.184989 0.798308
222 1 0.999365 0.253042 0.811542
223 1 0.0054188 0.760321 0.279514
224 1 0.500495 0.761293 0.303442
225 2 0.215493 0.930458 0.187265
226 2 0.707793 0.928174 0.190189