LAMMPS data file via write_data, version 15 Apr 2020, timestep = 80000

672 atoms
4 atom types

9.7372393270569901e-01 2.9008276418297321e+01 xlo xhi
-1.1257314989356688e+00 1.3279731781236240e+01 ylo yhi
-2.2170596043462609e-03 2.0019217258005238e+01 zlo zhi
-4.0843385308193640e-02 -3.7942902084856234e-02 -5.3880887364193653e-01 xy xz yz

Masses

1 12.0107
2 14.0067
3 15.9994
4 1.00794

Atoms # full

1 1 1 9.8329144412299105e-02 5.1982520311787033e+00 8.8305227154998844e-01 3.0099814440434547e+00 0 0 0
2 1 1 9.1092235561297363e-02 1.8971932443376865e+01 4.9172517946883221e-01 3.0734149596672817e+00 0 0 0
3 1 1 9.0300541354191161e-02 1.0903479364171487e+01 1.0957506748497224e+01 1.2924141682913055e+01 0 0 0
4 1 1 1.0350907155747137e-01 2.4753362216431714e+01 1.0784297649771087e+01 1.3107678490953221e+01 0 0 0
5 1 1 8.9114903154990044e-02 1.1803407892810968e+01 1.0965154459413572e+01 3.1546671390001269e+00 0 0 0
6 1 1 9.3608780848731338e-02 2.6118828759242845e+01 1.1229643828483070e+01 2.9100977870066900e+00 0 0 0
7 1 1 9.4214906543998472e-02 3.7707660453465595e+00 8.1270323978193426e-01 1.3217773037058519e+01 0 0 0
8 1 1 9.0073390717208379e-02 1.7786789461747521e+01 3.6399136945109034e-01 1.3235367524168883e+01 0 0 0
9 1 1 9.5035601371617373e-02 5.0921028847040857e+00 7.9277090773557441e+00 2.8467543457498765e+00 0 0 0
10 1 1 1.1256533101523586e-01 1.9093456572452634e+01 7.9442459878781628e+00 2.7984471798654771e+00 0 0 0
11 1 1 1.0517277909793657e-01 1.0856140383163645e+01 3.6670270345860629e+00 1.3058083971814860e+01 0 0 0
12 1 1 9.4227244465738366e-02 2.4664952439907736e+01 3.8183553047399270e+00 1.2950821909067944e+01 0 0 0
13 1 1 9.4508388479697128e-02 1.2035016978132992e+01 4.1747064920491432e+00 3.2453291528791759e+00 0 0 0
14 1 1 1.0250008181211639e-01 2.6414490633146361e+01 3.8735015293807074e+00 2.8324934639482864e+00 0 0 0
15 1 1 6.8800376735091429e-02 3.5568190565219799e+00 7.6178502838429880e+00 1.3274412812467299e+01 0 0 0
16 1 1 9.8301181883058336e-02 1.8037348447700388e+01 7.4895169320656931e+00 1.3370149129564242e+01 0 0 0
17 1 1 1.8421795246907548e-02 6.4773801341510264e+00 2.6183335471743163e-01 2.7308164002345632e+00 0 0 0
18 1 1 1.4665445948789390e-02 2.0279184590838444e+01 -9.0704569542185753e-02 2.7453500267460313e+00 0 0 0
19 1 1 9.9885235898662869e-03 9.6915414664542059e+00 1.1778870470477973e+01 1.2755966040652224e+01 0 0 0
20 1 1 4.3458333164374946e-03 2.3443418697976515e+01 1.1427032231185265e+01 1.3074085495764729e+01 0 0 0
21 1 1 9.8145897941436210e-03 1.2896409509188324e+01 1.1893653048425680e+01 3.0236186185462191e+00 0 0 0
22 1 1 1.5526898370305305e-02 2.7301455286927400e+01 1.2095604089505937e+01 2.8514296977365468e+00 0 0 0
23 1 1 2.2334024797878299e-02 2.5468720481686669e+00 1.1724366470538383e-01 1.2967601902950639e+01 0 0 0
24 1 1 -1.9422166341766384e-03 1.6493429066485355e+01 -2.5092213917083406e-01 1.3014079237308394e+01 0 0 0
25 1 1 2.3215411115076714e-02 6.3526142101472782e+00 7.2466341634936997e+00 2.6740578147642688e+00 0 0 0
26 1 1 2.4174533065761911e-02 2.0387880478619287e+01 7.3946819752668214e+00 2.6266153978182833e+00 0 0 0
27 1 1 9.1620924480109583e-03 9.8066332010420485e+00 4.6430417620588278e+00 1.2910632459328404e+01 0 0 0
28 1 1 1.0508164332149534e-02 2.3479940832464571e+01 4.6150578901840307e+00 1.2810555911477623e+01 0 0 0
29 1 1 1.4065494893871929e-02 1.3136602221947273e+01 5.0881662852933172e+00 3.1386663860646156e+00 0 0 0
30 1 1 6.5738003413579812e-03 2.7642648816533843e+01 4.6054656693691127e+00 2.6468988786042011e+00 0 0 0
31 1 1 5.7497732289968212e-03 2.3619567147084148e+00 6.8393040326230130e+00 1.3013196976431963e+01 0 0 0
32 1 1 1.4350318541366730e-02 1.6913437968411102e+01 6.6017357884546612e+00 1.3019962326289919e+01 0 0 0
33 1 1 -3.7530375449639441e-02 7.3572000000774267e+00 1.0789766242057666e+00 2.0211810450931842e+00 0 0 0
34 1 1 -3.5678494773643342e-02 2.1209957719609090e+01 7.1854679796714693e-01 2.0485918374602052e+00 0 0 0
35 1 1 -3.7769063405680613e-02 8.6463150770117583e+00 1.1288876097021415e+01 1.2011038516402012e+01 0 0 0
36 1 1 -4.0700794865984262e-02 2.2416954734325511e+01 1.0802546595335411e+01 1.2328337581615802e+01 0 0 0
37 1 1 -1.4689879522441607e-02 1.3821977222542202e+01 1.1521154728442799e+01 1.9881192225204598e+00 0 0 0
38 1 1 -3.2224206246813727e-02 2.8274363424986621e+01 1.1646022138601705e+01 1.9171943507511966e+00 0 0 0
39 1 1 -3.2325010154829505e-02 1.6498060004063961e+00 8.7999926252420702e-01 1.2204205257876467e+01 0 0 0
40 1 1 -4.8850346021973176e-02 1.5645173047287846e+01 4.3062960064666411e-01 1.2114304370786119e+01 0 0 0
41 1 1 -1.5022228342127641e-02 7.3417127346387385e+00 7.8532111985933648e+00 1.8590512306370075e+00 0 0 0
42 1 1 -4.3212139313982420e-02 2.1343816010901485e+01 8.1170077948312063e+00 1.8653942879656853e+00 0 0 0
43 1 1 -1.2753977783396396e-02 8.8657857531689146e+00 4.3024047497308926e+00 1.1882814092188511e+01 0 0 0
44 1 1 -1.7808844875400492e-02 2.2462357706293901e+01 4.0749584993055405e+00 1.1952445331870285e+01 0 0 0
45 1 1 -3.6301994578301841e-02 1.4098410045235548e+01 4.6652123682636439e+00 2.2264294438898697e+00 0 0 0
46 1 1 -1.5835707574286047e-02 2.8547440128897655e+01 4.0752046909603514e+00 1.6847669082815464e+00 0 0 0
47 1 1 -3.0940697152640348e-02 1.4325235663758518e+00 7.4754231621657459e+00 1.2160059459623543e+01 0 0 0
48 1 1 -2.5259314901009987e-02 1.6015888708311671e+01 7.1543844882079162e+00 1.2118333501200253e+01 0 0 0
49 1 1 4.4490161114111276e-02 7.0656094218714367e+00 2.4467431351405615e+00 1.6624188789999255e+00 0 0 0
50 1 1 4.2910588357093674e-02 2.0836629963811330e+01 1.9471757132605156e+00 1.4132291593267383e+00 0 0 0
51 1 1 3.1204397185888379e-02 8.8004459909329160e+00 1.0067330745914351e+01 1.1241594788561802e+01 0 0 0
52 1 1 2.9470123891043656e-02 2.2632227199093933e+01 9.5259676173970966e+00 1.1745549346204127e+01 0 0 0
53 1 1 4.8339982368484503e-02 1.3855180381427198e+01 1.0285766027751414e+01 1.3150609137362907e+00 0 0 0
54 1 1 3.9987499906791533e-02 2.8090244509574397e+01 1.0417178474285254e+01 1.1413382680582673e+00 0 0 0
55 1 1 4.2746661984339386e-02 1.8874128143341817e+00 2.2011281443180488e+00 1.1688031746724642e+01 0 0 0
56 1 1 2.6367436178722978e-02 1.5984499907601325e+01 1.6718612039049696e+00 1.1461001417976345e+01 0 0 0
57 1 1 3.6425330937378854e-02 7.1737460209847832e+00 9.2370367103427427e+00 1.4110248317956773e+00 0 0 0
58 1 1 5.0398926498353439e-02 2.0971403655250732e+01 9.2045469668965652e+00 1.0262862328024731e+00 0 0 0
59 1 1 4.4829724607910570e-02 8.8636346434476199e+00 3.0256704161523995e+00 1.1234835012278777e+01 0 0 0
60 1 1 3.7047385822479878e-02 2.2661830264033085e+01 2.8660853034059905e+00 1.1252932935716657e+01 0 0 0
61 1 1 3.9599518597133253e-02 1.4095407490177136e+01 3.3854149532477020e+00 1.5667630263271550e+00 0 0 0
62 1 1 4.7533851233277663e-02 2.8420645451296554e+01 2.7146021983444841e+00 1.2600319175073655e+00 0 0 0
63 1 1 4.3053654927266788e-02 1.7426805491503012e+00 8.6831156883822374e+00 1.1413442289851581e+01 0 0 0
64 1 1 4.0288974352668983e-02 1.6099347997787035e+01 8.5214704286464240e+00 1.1641177468984759e+01 0 0 0
65 1 1 -4.4324420857672645e-02 5.7656972080474382e+00 3.0006214124656170e+00 2.0629670108356009e+00 0 0 0
66 1 1 -2.5315409927871124e-02 1.9507542505318678e+01 2.3471527460298547e+00 1.6329491080637439e+00 0 0 0
67 1 1 -3.7805774307632802e-02 9.9640883028065197e+00 9.2783373280219017e+00 1.1472034052513006e+01 0 0 0
68 1 1 -4.6384888916238327e-02 2.3820264566403328e+01 8.8201612506209521e+00 1.2068526032875733e+01 0 0 0
69 1 1 -2.9489906495589507e-02 1.2881686088598983e+01 9.2878044562747206e+00 1.7772916390142133e+00 0 0 0
70 1 1 -2.0216043648011755e-02 2.6986457920352045e+01 9.5741051525506151e+00 1.3886759039057257e+00 0 0 0
71 1 1 -3.5101482891592393e-02 3.2067421239134926e+00 2.7869823601938117e+00 1.1855922637433816e+01 0 0 0
72 1 1 -3.4280790170653407e-02 1.7191021284806645e+01 2.2851016963839381e+00 1.1881779604652820e+01 0 0 0
73 1 1 -3.5549880201531263e-02 6.0412418504146963e+00 9.9316811220995476e+00 1.8291921240462599e+00 0 0 0
74 1 1 -3.3147938360533188e-02 1.9700234868969986e+01 9.7324531298538197e+00 1.3811531189187995e+00 0 0 0
75 1 1 -2.7083889155201851e-02 9.8090076447115848e+00 2.0579862057771909e+00 1.1606333112016586e+01 0 0 0
76 1 1 -4.0963172708172152e-02 2.3781236978814430e+01 2.0715997405267790e+00 1.1695348763071639e+01 0 0 0
77 1 1 -3.6734601109121766e-02 1.3018084378613130e+01 2.4718852452525448e+00 1.8614169592912475e+00 0 0 0
78 1 1 -3.7318240952790578e-02 2.7337240366823238e+01 1.9586495659851559e+00 1.7515767805237850e+00 0 0 0
79 1 1 -4.4367402037868750e-02 2.8873919631875440e+00 9.3648002605273959e+00 1.1739990397470940e+01 0 0 0
80 1 1 -3.8844400804738527e-02 1.7123487196469437e+01 9.3526975207890040e+00 1.2129577617572840e+01 0 0 0
81 1 1 -3.1684701083752667e-03 4.8317910516998133e+00 2.2238329161431660e+00 2.7771288047812277e+00 0 0 0
82 1 1 1.6406059182609511e-02 1.8611088728983351e+01 1.7880979151847471e+00 2.6367242342794239e+00 0 0 0
83 1 1 1.3541650735188423e-02 1.1029772007756462e+01 9.6538827831041907e+00 1.2366349538933104e+01 0 0 0
84 1 1 1.5268855751298525e-02 2.4925940151420626e+01 9.4106466405483538e+00 1.2739928269425501e+01 0 0 0
85 1 1 2.5141900523196065e-02 1.1746448519309473e+01 9.6736098706860147e+00 2.5769049729597628e+00 0 0 0
86 1 1 1.4704364121047482e-02 2.5961417716274820e+01 9.9252559999398997e+00 2.2996942707006252e+00 0 0 0
87 1 1 2.2324688812301079e-02 4.1377338696334158e+00 2.0992473015506423e+00 1.2700200544032686e+01 0 0 0
88 1 1 9.3885695024596670e-03 1.8100933912444393e+01 1.6930515005049354e+00 1.2841222800926676e+01 0 0 0
89 1 1 3.2421317601705066e-02 4.8805670485241546e+00 9.3144922434799078e+00 2.4506461060529459e+00 0 0 0
90 1 1 1.4645449239824856e-02 1.8715595349430352e+01 9.2290960647252938e+00 2.2769231808476382e+00 0 0 0
91 1 1 1.8850049040293831e-02 1.0887379379977041e+01 2.3174670898213794e+00 1.2531639002670151e+01 0 0 0
92 1 1 3.2845617322738538e-02 2.4861763746093153e+01 2.4885713799429712e+00 1.2499796767114827e+01 0 0 0
93 1 1 2.0792750775542330e-02 1.1901291452989351e+01 2.8689712128562328e+00 2.6329566271462270e+00 0 0 0
94 1 1 1.1607569657953273e-02 2.6211174509933038e+01 2.4973082038395162e+00 2.4530209398768297e+00 0 0 0
95 1 1 -3.9883281211487709e-04 3.7265746839242215e+00 8.9553672399745565e+00 1.2818371854264218e+01 0 0 0
96 1 1 1.2786354137010757e-02 1.8094029353867260e+01 8.8963831942482230e+00 1.3092875304740931e+01 0 0 0
97 1 1 -2.7821801203731877e-01 4.0955518430982218e+00 -5.1060692427240539e-03 3.6633033083954212e+00 0 1 0
98 1 1 -2.5775918342870363e-01 1.8036191560916659e+01 -3.2978463096253230e-01 4.0102622859612982e+00 0 1 0
99 1 1 -2.6044629728332819e-01 1.2069604440656292e+01 1.1486525093381115e+01 1.3754473774005030e+01 0 -1 0
100 1 1 -2.6719390460053360e-01 2.5952393500349000e+01 1.1581965095311560e+01 1.3713713223712846e+01 0 -1 0
101 1 1 -2.6458276229084260e-01 1.0698636402977437e+01 1.1573786868695713e+01 4.0827913982414339e+00 0 -1 0
102 1 1 -2.6716608843485234e-01 2.4909005388339942e+01 1.1842745859081123e+01 3.6782180902587127e+00 0 -1 0
103 1 1 -2.6331805307025891e-01 4.9587935805827232e+00 9.4169491349552326e-02 1.3947442832587564e+01 0 1 0
104 1 1 -2.8022039269862137e-01 1.8772761939608689e+01 -4.3820733445720372e-01 1.4084512756665973e+01 0 1 0
105 1 1 -2.7705852239049455e-01 3.8677099961900776e+00 7.0871518140522491e+00 3.3317748019495848e+00 0 0 0
106 1 1 -2.6793398234015181e-01 1.7988888252688504e+01 7.2080168792135586e+00 3.5855041595539401e+00 0 0 0
107 1 1 -2.7523131227282155e-01 1.2093187893132512e+01 3.9989052162115568e+00 1.3900304614561941e+01 0 0 0
108 1 1 -2.6645876235944682e-01 2.5927496538405137e+01 4.4043022829257641e+00 1.3683775118116916e+01 0 0 0
109 1 1 -2.6043468756316474e-01 1.0997143276318020e+01 4.6492970772810027e+00 4.2063727699963822e+00 0 0 0
110 1 1 -2.8113367416565127e-01 2.5179487536846239e+01 4.5614378388387271e+00 3.4488357904719291e+00 0 0 0
111 1 1 -2.8810383493167252e-01 4.7097878475570090e+00 6.9947532125732019e+00 1.4110255511442709e+01 0 0 0
112 1 1 -2.7037930412933980e-01 1.9171874547733253e+01 6.6159649185092322e+00 1.3961019460309503e+01 0 0 0
113 1 1 9.4589623456255406e-02 9.2310768517889255e+00 2.4026035058191964e-01 1.6911091006093002e+01 0 0 0
114 1 1 1.0745093205483053e-01 2.3238984676310025e+01 2.0828683118200808e-01 1.7074492629721412e+01 0 0 0
115 1 1 9.0093352349601613e-02 6.3560549957306494e+00 1.1134335390357336e+01 7.0235686975914122e+00 0 0 0
116 1 1 9.1009397922494864e-02 2.0956758606783449e+01 1.1117537996840497e+01 6.7143723692576156e+00 0 0 0
117 1 1 9.4862940553869679e-02 2.3240323915441139e+00 1.1340979409224389e+01 1.7174401386035257e+01 0 0 0
118 1 1 1.1094330460753715e-01 1.5859142680722032e+01 1.0996257385632649e+01 1.6943877662161420e+01 0 0 0
119 1 1 8.4097471539717777e-02 1.3819466215086953e+01 4.1827328778418815e-01 7.1345214096914171e+00 0 0 0
120 1 1 9.6065225501859391e-02 2.8143044650058354e+01 3.7854852228217384e-01 7.1135097649202441e+00 0 0 0
121 1 1 1.0198710732195740e-01 8.9779288427665502e+00 7.4736558322418629e+00 1.6847138421232451e+01 0 0 0
122 1 1 1.1104132241914884e-01 2.3423788815971804e+01 7.4638930483106423e+00 1.7029538496871183e+01 0 0 0
123 1 1 1.0359633566180200e-01 6.6918362930538482e+00 3.9868676394548928e+00 6.6005362506238106e+00 0 0 0
124 1 1 9.3736129669286350e-02 2.1055773180259656e+01 4.3272443112706114e+00 6.5014054066858886e+00 0 0 0
125 1 1 1.1123849479052408e-01 2.1754433086782718e+00 4.0205958791362741e+00 1.6897460777557214e+01 0 0 0
126 1 1 1.0572667827712817e-01 1.5853103876575693e+01 3.7153482944871774e+00 1.7208577500760278e+01 0 0 0
127 1 1 1.1513787067752516e-01 1.3845955521989042e+01 7.6574371870325928e+00 7.1554797748237409e+00 0 0 0
128 1 1 9.5749593264306848e-02 2.7557410872519210e+01 7.4774131309793512e+00 6.9953241310458747e+00 0 0 0
129 1 1 1.5582441066050102e-02 1.0436402483853721e+01 7.7012665716603967e-01 1.7426533505439927e+01 0 0 0
130 1 1 1.3507642213655600e-02 2.4604315236751553e+01 5.4268392241720798e-01 1.7252804716662276e+01 0 0 0
131 1 1 2.4403156274710059e-02 5.0567375349860137e+00 1.0678513337695794e+01 7.3945464527718183e+00 0 0 0
132 1 1 3.8133251794233783e-03 1.9720716532557862e+01 1.0555005939425779e+01 7.0894631530113363e+00 0 0 0
133 1 1 2.8026628231500213e-02 3.5903791481425009e+00 1.0731180144998834e+01 1.7533320174172736e+01 0 0 0
134 1 1 2.9372675218281408e-02 1.7125458087567104e+01 1.0351482413932821e+01 1.7281632513591759e+01 0 0 0
135 1 1 2.7087746866103619e-02 1.2478328752433605e+01 8.7679004488291490e-01 7.3113361938519006e+00 0 0 0
136 1 1 2.9807043500448271e-02 2.6855624142939039e+01 9.7501725100666015e-01 7.3868695643737894e+00 0 0 0
137 1 1 2.0698436956565702e-02 1.0255044402925297e+01 7.9857528915064071e+00 1.7168834355480811e+01 0 0 0
138 1 1 2.6440119033180002e-02 2.4740618668912852e+01 7.8496582925721059e+00 1.7354164322506350e+01 0 0 0
139 1 1 1.9870328222732832e-02 5.5299217299230774e+00 3.3794582612290114e+00 7.1282149879399750e+00 0 0 0
140 1 1 1.3207851333242152e-02 1.9800386239610152e+01 3.8087705284904301e+00 6.9004629740082191e+00 0 0 0
141 1 1 3.7811379244229948e-02 3.4225212399770317e+00 3.4725817472171192e+00 1.7370858891663701e+01 0 0 0
142 1 1 2.4999325095592877e-02 1.7224358898701301e+01 3.3370131870670292e+00 1.7444606284427849e+01 0 0 0
143 1 1 2.0954151068667007e-02 1.2547651043079137e+01 8.2076240027335601e+00 7.3665419535101178e+00 0 0 0
144 1 1 3.3900908807266726e-02 2.6342022682382318e+01 8.0576076288609713e+00 7.4940347087397488e+00 0 0 0
145 1 1 -7.5577147140214532e-03 1.1181706364847724e+01 -7.4834497168211334e-02 1.8300129403472020e+01 0 0 0
146 1 1 -3.6482014011255087e-02 2.5405834345961928e+01 -3.6922519785822483e-01 1.8021907388107238e+01 0 0 0
147 1 1 -3.2390952710021501e-02 4.3267696175155823e+00 1.1497488731226081e+01 8.3332132157504031e+00 0 0 0
148 1 1 -2.1503462779141259e-02 1.9045027952800940e+01 1.1231339784805876e+01 8.1707679410334357e+00 0 0 0
149 1 1 -1.7642456940656248e-02 4.5091863888461479e+00 1.1478733590892343e+01 1.8265696954367485e+01 0 0 0
150 1 1 -4.0815204839740347e-02 1.8005397567296615e+01 1.1221649950626940e+01 1.7961690755708304e+01 0 0 0
151 1 1 -3.4719153185826773e-02 1.1607467005381837e+01 -1.2886271018002438e-02 7.9276399363772594e+00 0 0 0
152 1 1 -2.1104321775204091e-02 2.5934576449189436e+01 1.9274233881826186e-01 8.1359801802771834e+00 0 0 0
153 1 1 -1.0561941116475942e-02 1.0965239525077699e+01 7.1414478795472052e+00 1.8037493368706393e+01 0 0 0
154 1 1 -2.3640471530969109e-02 2.5537622758085057e+01 6.9232861503464713e+00 1.8069629379618100e+01 0 0 0
155 1 1 -3.1813679310491096e-02 4.7321612261816828e+00 4.1736594304430215e+00 8.0296837204394009e+00 0 0 0
156 1 1 -2.4179724989810688e-02 1.9060127304829944e+01 4.5951597011875505e+00 7.8085778018952547e+00 0 0 0
157 1 1 -2.9572903785057888e-02 4.0957367187518612e+00 4.3682286031108770e+00 1.8232577268294634e+01 0 0 0
158 1 1 -2.5477122452298842e-02 1.8053512093262785e+01 4.2446784959865882e+00 1.8238462701938545e+01 0 0 0
159 1 1 -3.3208653324562076e-02 1.1640413564598777e+01 7.3344042907747165e+00 8.0118751981975116e+00 0 0 0
160 1 1 -1.9338885932165560e-02 2.5513635208047070e+01 7.2285217483692383e+00 8.3090131814322685e+00 0 0 0
161 1 1 3.7430394422361811e-02 1.0793065466542636e+01 -1.3755551947080786e+00 1.8717560217251126e+01 0 0 0
162 1 1 4.0995552929966428e-02 2.4908735948282683e+01 -1.6186734763698263e+00 1.8553836654844844e+01 0 0 0
163 1 1 4.7519911447129533e-02 4.8177626432566569e+00 1.2784169648308840e+01 8.7247913601887515e+00 0 0 0
164 1 1 3.7710758846053946e-02 1.9504686433311058e+01 1.2376239005279150e+01 8.8569543569999176e+00 0 0 0
165 1 1 3.1619139345424180e-02 4.3702375600612582e+00 -1.5242503886594374e+00 1.8567044972673109e+01 0 1 0
166 1 1 4.6699467889958830e-02 1.7655739138802755e+01 1.2534835023478333e+01 1.8368311732606422e+01 0 0 0
167 1 1 4.6501664144893054e-02 1.2081161651135114e+01 -1.2311502329337274e+00 8.5239439251454883e+00 0 0 0
168 1 1 4.1978174790453453e-02 2.6385885831552013e+01 -1.0988814008893124e+00 8.6245175398641614e+00 0 0 0
169 1 1 4.7664268439093785e-02 1.0547308461077737e+01 5.9241373250301841e+00 1.8667488277146774e+01 0 0 0
170 1 1 4.0521340370874230e-02 2.5130753363062105e+01 5.5926696273538070e+00 1.8398277010968116e+01 0 0 0
171 1 1 5.7985683447457706e-02 5.0239341613626713e+00 5.4959519753921802e+00 8.4216561309503337e+00 0 0 0
172 1 1 4.5510883086501898e-02 1.9366529068406066e+01 5.9172210663181675e+00 8.1931383229232058e+00 0 0 0
173 1 1 3.0727553769002578e-02 3.5743217821747031e+00 5.6793294367534495e+00 1.8611192430363445e+01 0 0 0
174 1 1 5.2603898868258531e-02 1.7409746204341150e+01 5.3118540432590082e+00 1.8885550328765916e+01 0 0 0
175 1 1 4.2269572838259620e-02 1.2045646478710044e+01 6.0715677106943620e+00 8.5360440784998630e+00 0 0 0
176 1 1 3.9965013387070994e-02 2.5884057141937909e+01 5.8919133012052569e+00 8.6673289924270058e+00 0 0 0
177 1 1 -2.9171375440514749e-02 9.5594399658822216e+00 1.2585074794346891e+01 1.8064020997339888e+01 0 -1 0
178 1 1 -2.9460349189728008e-02 2.3534903863657558e+01 1.2460525769883525e+01 1.8133359939282322e+01 0 -1 0
179 1 1 -3.1066375842399907e-02 6.0517352192941845e+00 -1.1433317240045258e+00 8.0981069343007945e+00 0 1 0
180 1 1 -4.1263477844983305e-02 2.0758380640080890e+01 1.2885409784235691e+01 8.3546122896320671e+00 0 0 0
181 1 1 -1.9791999924875608e-02 3.1891238146178371e+00 -9.6379065236259509e-01 1.8038169058881394e+01 0 1 0
182 1 1 -3.0112473504236709e-02 1.6404577580157707e+01 -1.3773451996022654e+00 1.7991417030348792e+01 0 1 0
183 1 1 -3.8156413796278384e-02 1.3382433257862504e+01 1.2793245412587599e+01 8.3117702062159626e+00 0 -1 0
184 1 1 -2.5489223682309957e-02 2.7539965093085133e+01 1.2726327767858606e+01 8.1453687492900091e+00 0 -1 0
185 1 1 -3.7636175956075844e-02 9.2771062619721061e+00 5.4486986403331317e+00 1.8295343302924479e+01 0 0 0
186 1 1 -4.0605945386705193e-02 2.3792450608638937e+01 5.2611323937010903e+00 1.7989468167669074e+01 0 0 0
187 1 1 -2.8920938560641707e-02 6.2805228106511741e+00 6.0049157899017453e+00 7.8754651128556725e+00 0 0 0
188 1 1 -2.4542343880713448e-02 2.0594687300661931e+01 6.3599119547357548e+00 7.6545742033091049e+00 0 0 0
189 1 1 -2.5311394212669175e-02 2.3103169511894857e+00 6.0701254657176920e+00 1.8086271002444221e+01 0 0 0
190 1 1 -2.0694277276640975e-02 1.6137987926844268e+01 5.7726363537021834e+00 1.8372508633768277e+01 0 0 0
191 1 1 -3.3993753682037227e-02 1.3341832135707532e+01 5.5895443424796731e+00 8.1649717452288488e+00 0 0 0
192 1 1 -3.0164473529936720e-02 2.7134792862788739e+01 5.4304204755331513e+00 8.1520176618870419e+00 0 0 0
193 1 1 1.9106878738342062e-02 8.7608766733244074e+00 -1.0887611173951759e+00 1.7185400673609749e+01 0 0 0
194 1 1 2.4461148773786842e-02 2.2721332001701082e+01 -1.0549511198968557e+00 1.7412530211581632e+01 0 0 0
195 1 1 3.8318663957409467e-03 6.7613197891777919e+00 1.2520453634774757e+01 7.1711343030473946e+00 0 0 0
196 1 1 4.7108005833082015e-03 2.1394397209269883e+01 1.2436104400477284e+01 7.1980317614560914e+00 0 0 0
197 1 1 1.2299278206483872e-02 1.5423171907184457e+01 1.2314576056044313e+01 1.7210007777101850e+01 0 0 0
198 1 1 2.4375148884898241e-02 2.0917557924834989e+00 1.2709074950123316e+01 1.7414929409890064e+01 1 0 0
199 1 1 1.8323274313669060e-02 2.8493850590242225e+01 -9.7698159189518230e-01 7.3034654957167149e+00 -1 0 0
200 1 1 5.4805413406355391e-03 1.4293579665532238e+01 -8.6372956973848725e-01 7.4343828791437403e+00 0 0 0
201 1 1 2.4411968426965636e-02 8.4919088646344107e+00 6.2134557504904908e+00 1.7376822255446555e+01 0 0 0
202 1 1 6.5393690513180953e-03 2.2948263391576699e+01 6.1091365222393579e+00 1.7240789937831678e+01 0 0 0
203 1 1 2.4280159897088593e-02 7.0846924638514830e+00 5.3538937107113975e+00 6.9320898977317160e+00 0 0 0
204 1 1 8.4236853632624967e-03 2.1477763724632453e+01 5.6500488962473829e+00 6.8870555438748422e+00 0 0 0
205 1 1 2.0080912613638674e-02 1.5293806659630024e+01 5.0507608359516221e+00 1.7476667542033766e+01 0 0 0
206 1 1 2.3200292711041404e-02 1.5777952896514709e+00 5.3072201944043575e+00 1.7155099393243184e+01 1 0 0
207 1 1 2.5477793113345720e-02 2.7964233057295186e+01 6.1366317566361435e+00 7.2521923518125648e+00 -1 0 0
208 1 1 3.1863131285936541e-02 1.4288450685578455e+01 6.3259946298200251e+00 7.3881039373645496e+00 0 0 0
209 1 1 -2.9260110734154776e-01 8.3171896605849582e+00 1.2775392560759933e+00 1.6220620628046198e+01 0 0 0
210 1 1 -2.8637918060945800e-01 2.2385700986749288e+01 1.2006429804637042e+00 1.6239970351609564e+01 0 0 0
211 1 1 -2.6741900991192386e-01 7.5277835660772787e+00 1.0169210909323475e+01 6.6467223478322817e+00 0 0 0
212 1 1 -2.8811374198001916e-01 2.1882507261672934e+01 1.0235257774975821e+01 5.8155104793955843e+00 0 0 0
213 1 1 -2.8433289054406086e-01 1.4733394369770213e+01 1.0129391055627192e+01 1.6355332803117768e+01 0 0 0
214 1 1 -2.9260482838663021e-01 1.2561412256160853e+00 1.0465682971500058e+01 1.6483865107907860e+01 1 0 0
215 1 1 -2.7851364513747517e-01 1.0480124851967296e+00 1.2692486656795894e+00 6.3405448189182980e+00 0 0 0
216 1 1 -2.7697020903654984e-01 1.4879187775906791e+01 1.3506027365906452e+00 6.4782330857846073e+00 0 0 0
217 1 1 -2.7342259065996233e-01 8.1092782713831806e+00 8.3867414975673533e+00 1.5938897781714303e+01 0 0 0
218 1 1 -2.7636326043317272e-01 2.2551153800953951e+01 8.3477162316947293e+00 1.6163907305477807e+01 0 0 0
219 1 1 -2.8549972652685973e-01 7.6377783166684088e+00 3.2174388943123970e+00 5.6520920939610608e+00 0 0 0
220 1 1 -2.7745070133462540e-01 2.1945729248390588e+01 3.2816615581458315e+00 5.8437917047335679e+00 0 0 0
221 1 1 -2.7038018935073954e-01 1.4849880896380791e+01 2.7619314643806083e+00 1.6541783463898568e+01 0 0 0
222 1 1 -2.7787468534218834e-01 1.3618724542193099e+00 3.0251140563406063e+00 1.6046286523273601e+01 1 0 0
223 1 1 -2.7922597906128194e-01 2.8657500464339940e+01 8.3881723656328475e+00 6.4012675859116168e+00 -1 0 0
224 1 1 -2.9579226252331103e-01 1.4832918109594226e+01 8.6536094815304949e+00 6.5295352884364259e+00 0 0 0
225 1 2 3.8488293460973305e-01 6.8654463912601971e+00 -1.1922183729234324e+00 3.1050727192227572e+00 0 1 0
226 1 2 3.7592755423555990e-01 2.0653244998518737e+01 1.2912629578805007e+01 3.1525438461487649e+00 0 0 0
227 1 2 3.7598616803238633e-01 9.5911940534233882e+00 -1.2272158781756140e+00 1.3389894591348517e+01 0 0 0
228 1 2 3.8823317029578325e-01 2.3161369447481441e+01 1.2786316761791500e+01 1.3719632606888016e+01 0 -1 0
229 1 2 3.7619172365131831e-01 1.3106254820104082e+01 -1.1783997700195838e+00 3.7136914628253130e+00 0 0 0
230 1 2 3.4921134548008437e-01 2.7624644125651184e+01 -1.1428641504957122e+00 3.7777395975265429e+00 0 0 0
231 1 2 3.8806809932669761e-01 2.0950051911716887e+00 -1.2200044195165807e+00 1.3577445794687057e+01 0 1 0
232 1 2 3.8365084138183386e-01 1.6002996394468891e+01 -1.4628693690282992e+00 1.3710236240444107e+01 0 1 0
233 1 2 3.5514880302019503e-01 6.7085174150455540e+00 5.9946259153669414e+00 3.4724171214108157e+00 0 0 0
234 1 2 3.8647186157533903e-01 2.0870227625871525e+01 6.0509396808147873e+00 3.1995105495201761e+00 0 0 0
235 1 2 3.6964068625289837e-01 9.6806866427879346e+00 5.9242380624029831e+00 1.3661865180276937e+01 0 0 0
236 1 2 3.6996979328770335e-01 2.3302222479345669e+01 5.9271002087478148e+00 1.3558622014239594e+01 0 0 0
237 1 2 3.7312076639233926e-01 1.3384326758343461e+01 6.4179029975889224e+00 3.9087653340113180e+00 0 0 0
238 1 2 3.7235036714634906e-01 2.7928170817408979e+01 5.8981497058409555e+00 3.3643315290135183e+00 0 0 0
239 1 2 3.7766540410856148e-01 2.0436383585985909e+00 5.4909763355480656e+00 1.3650579314834779e+01 0 0 0
240 1 2 3.6649962399032759e-01 1.6581599045972506e+01 5.3152760900108893e+00 1.3756468970615851e+01 0 0 0
241 1 2 3.4510903056628073e-01 8.0421072640147511e+00 3.1868736006367273e+00 8.0025270184946817e-01 0 0 0
242 1 2 3.3193118173529718e-01 2.1773040374772116e+01 2.6816054412027883e+00 4.6073954319968968e-01 0 0 0
243 1 2 3.3000226203460908e-01 7.8274516022919851e+00 9.7489024707229710e+00 1.0173584425355365e+01 0 0 0
244 1 2 3.4682235220323010e-01 2.1592355956758730e+01 9.0659549116855160e+00 1.0727336105700864e+01 0 0 0
245 1 2 3.7779122415070732e-01 1.4819896403126849e+01 1.0056605249170545e+01 1.8082441531169519e-01 0 0 0
246 1 2 3.6254459490582419e-01 9.8702858684499462e-01 9.9310606472820986e+00 9.4337584793977441e-02 1 0 0
247 1 2 3.3829381834844430e-01 2.8944743471286209e+01 2.8218071937103915e+00 1.0731770312084835e+01 -1 0 0
248 1 2 3.4093951830331398e-01 1.5126194562000162e+01 2.3263536563758733e+00 1.0380719650401423e+01 0 0 0
249 1 2 3.5736678808277667e-01 8.1442038527317013e+00 9.6747906814597613e+00 3.3266916336568636e-01 0 0 0
250 1 2 3.7250666815489608e-01 2.1889640693331508e+01 9.1928652040764938e+00 1.9942670169846828e+01 0 0 -1
251 1 2 3.8036751169813537e-01 7.9136896999598800e+00 2.7471062293906825e+00 1.0051692061384069e+01 0 0 0
252 1 2 3.6030354608724080e-01 2.1688913670785091e+01 2.4143178610262570e+00 1.0168954408006838e+01 0 0 0
253 1 2 3.5801798396408241e-01 1.5084430899633380e+01 3.1069915718627659e+00 4.6409331266136367e-01 0 0 0
254 1 2 3.6260771383259904e-01 1.4099335975696015e+00 2.1921683757151151e+00 2.4240670039334000e-01 1 0 0
255 1 2 3.6439326832976049e-01 2.8787027054634613e+01 9.2096670413774611e+00 1.0283641650154381e+01 -1 0 0
256 1 2 3.4413282667880357e-01 1.5233466045557515e+01 9.0163016558344786e+00 1.0540196610468508e+01 0 0 0
257 1 2 3.8805407229995142e-01 3.4664823825547870e+00 2.8916108879151237e+00 2.9967633730241574e+00 0 0 0
258 1 2 3.7924962148686497e-01 1.7348891263614110e+01 2.5191772956730549e+00 3.1053192490141681e+00 0 0 0
259 1 2 3.8149367059033495e-01 1.2130806355287801e+01 8.6997096045051698e+00 1.2738179279612487e+01 0 0 0
260 1 2 3.8621193080445038e-01 2.6093076879476218e+01 8.5197620055441092e+00 1.2964928163951393e+01 0 0 0
261 1 2 3.6791422960851783e-01 1.0618561358325998e+01 8.7180052362401419e+00 2.9308727987555030e+00 0 0 0
262 1 2 3.8842962677731219e-01 2.4835089439537231e+01 8.9332185827435069e+00 2.6438737182580301e+00 0 0 0
263 1 2 3.5676415331081107e-01 5.4972333784542418e+00 2.7943585459749301e+00 1.2825441191067291e+01 0 0 0
264 1 2 4.0324027440384352e-01 1.9300187011148470e+01 2.4897326334480829e+00 1.3367683645987062e+01 0 0 0
265 1 2 3.5657426039317136e-01 3.6868869063671204e+00 1.0120804432697614e+01 2.8683526024844439e+00 0 0 0
266 1 2 3.5159357839850552e-01 1.7384165310315304e+01 9.9044633363947341e+00 2.5015770245035522e+00 0 0 0
267 1 2 3.6901496983612586e-01 1.1963523671141379e+01 1.3008527517194990e+00 1.2818523027983034e+01 0 0 0
268 1 2 4.0193175443111684e-01 2.6125939957198558e+01 1.6080356902683830e+00 1.2661553894441235e+01 0 0 0
269 1 2 3.9930783494328226e-01 1.0756498152410860e+01 1.9138947788099880e+00 2.9129710044429769e+00 0 0 0
270 1 2 3.8620781014395744e-01 2.5034871972267943e+01 1.6107882388172783e+00 2.8606046883152301e+00 0 0 0
271 1 2 3.8251968198650282e-01 4.9062959022560726e+00 9.8356047886846305e+00 1.3270555023233634e+01 0 0 0
272 1 2 3.7754317586355218e-01 1.9185757821323573e+01 9.7855765012603975e+00 1.3618232235210369e+01 0 0 0
273 1 2 3.7925546869466609e-01 1.1020533172936679e+01 2.1135672326667985e+00 1.7017389499004942e+01 0 0 0
274 1 2 3.9644040660414093e-01 2.5334764414349298e+01 1.7615601568100141e+00 1.6643324794130940e+01 0 0 0
275 1 2 3.6883016515437006e-01 4.5269981286992440e+00 9.3811501407409992e+00 6.8651377938681986e+00 0 0 0
276 1 2 4.0717411206884574e-01 1.9028446828912237e+01 9.2944288407613627e+00 6.4605891188850952e+00 0 0 0
277 1 2 4.0090622392770636e-01 3.9397282714962856e+00 9.2589561762225401e+00 1.7205029031694743e+01 0 0 0
278 1 2 3.4569388499876919e-01 1.7470982804398048e+01 8.8758587074338315e+00 1.7177049661297325e+01 0 0 0