ITEM: TIMESTEP
0
ITEM: NUMBER OF ATOMS
576
ITEM: BOX BOUNDS xy xz yz pp pp pp
-3.8734541101000000e+00 1.7704000473000001e+01 0.0000000000000000e+00
0.0000000000000000e+00 2.5111999511699999e+01 -3.8734541101000000e+00
0.0000000000000000e+00 1.2813326682700000e+01 0.0000000000000000e+00
ITEM: ATOMS id type xs ys zs
1 1 0.223062 0.316224 0.868365
2 1 0.776938 0.683776 0.131635
3 1 0.026938 0.566224 0.631635
4 1 0.473062 0.933776 0.368365
5 1 0.223062 0.816224 0.868365
6 1 0.776938 0.183776 0.131635
7 1 0.026938 0.0662235 0.631635
8 1 0.473062 0.433776 0.368365
9 1 0.723062 0.316224 0.868365
10 1 0.276938 0.683776 0.131635
11 1 0.526938 0.566224 0.631635
12 1 0.973062 0.933776 0.368365
13 1 0.723062 0.816224 0.868365
14 1 0.276938 0.183776 0.131635
15 1 0.526938 0.0662235 0.631635
16 1 0.973062 0.433776 0.368365
17 1 0.156885 0.317663 0.68304
18 1 0.843115 0.682337 0.31696
19 1 0.0931137 0.567663 0.816959
20 1 0.406886 0.932337 0.183041
21 1 0.156885 0.817663 0.68304
22 1 0.843115 0.182337 0.316959
23 1 0.0931137 0.0676629 0.816959
24 1 0.406885 0.432337 0.183041
25 1 0.656885 0.317663 0.683041
26 1 0.343114 0.682337 0.316959
27 1 0.593115 0.567663 0.81696
28 1 0.906886 0.932337 0.183041
29 1 0.656885 0.817663 0.683041
30 1 0.343114 0.182337 0.316959
31 1 0.593114 0.0676629 0.816959
32 1 0.906885 0.432337 0.18304
33 1 0.276342 0.256665 0.69287
34 1 0.723658 0.743335 0.30713
35 1 0.973657 0.506665 0.80713
36 1 0.526343 0.993335 0.19287
37 1 0.276342 0.756665 0.692871
38 1 0.723657 0.243335 0.30713
39 1 0.973657 0.0066653 0.80713
40 1 0.526342 0.493335 0.19287
41 1 0.776343 0.256665 0.69287
42 1 0.223657 0.743335 0.30713
43 1 0.473658 0.506665 0.80713
44 1 0.0263427 0.993335 0.19287
45 1 0.776342 0.756665 0.69287
46 1 0.223657 0.243335 0.30713
47 1 0.473657 0.0066653 0.80713
48 1 0.0263423 0.493335 0.192871
49 1 0.296663 0.278995 0.875647
50 1 0.703337 0.721005 0.124353
51 1 0.953338 0.528995 0.624353
52 1 0.546662 0.971005 0.375647
53 1 0.296663 0.778995 0.875647
54 1 0.703337 0.221005 0.124353
55 1 0.953338 0.028995 0.624353
56 1 0.546663 0.471005 0.375647
57 1 0.796662 0.278995 0.875647
58 1 0.203338 0.721005 0.124353
59 1 0.453337 0.528995 0.624353
60 1 0.0466624 0.971005 0.375647
61 1 0.796663 0.778995 0.875647
62 1 0.203338 0.221005 0.124353
63 1 0.453338 0.028995 0.624353
64 1 0.0466626 0.471005 0.375647
65 1 0.333003 0.308239 0.720945
66 1 0.666997 0.691761 0.279055
67 1 0.916997 0.558239 0.779054
68 1 0.583003 0.941761 0.220945
69 1 0.333003 0.808239 0.720945
70 1 0.666997 0.191761 0.279055
71 1 0.916997 0.0582392 0.779054
72 1 0.583003 0.441761 0.220945
73 1 0.833003 0.308239 0.720945
74 1 0.166997 0.691761 0.279055
75 1 0.416997 0.558239 0.779055
76 1 0.0830027 0.941761 0.220946
77 1 0.833003 0.808239 0.720945
78 1 0.166997 0.191761 0.279054
79 1 0.416997 0.0582392 0.779054
80 1 0.0830027 0.441761 0.220945
81 1 0.214941 0.367544 0.712206
82 1 0.785059 0.632456 0.287794
83 1 0.0350588 0.617543 0.787794
84 1 0.464941 0.882457 0.212206
85 1 0.214941 0.867544 0.712206
86 1 0.785059 0.132457 0.287794
87 1 0.0350588 0.117543 0.787794
88 1 0.464941 0.382456 0.212206
89 1 0.714941 0.367543 0.712206
90 1 0.285059 0.632457 0.287794
91 1 0.535059 0.617544 0.787794
92 1 0.964941 0.882457 0.212206
93 1 0.714941 0.867544 0.712206
94 1 0.285059 0.132457 0.287794
95 1 0.535059 0.117543 0.787794
96 1 0.964941 0.382456 0.212206
97 2 0.208884 0.320634 0.94537
98 2 0.791116 0.679366 0.0546302
99 2 0.0411156 0.570634 0.55463
100 2 0.458884 0.929366 0.44537
101 2 0.208884 0.820634 0.94537
102 2 0.791116 0.179366 0.0546302
103 2 0.0411156 0.0706341 0.55463
104 2 0.458884 0.429366 0.44537
105 2 0.708884 0.320634 0.94537
106 2 0.291116 0.679366 0.0546302
107 2 0.541116 0.570634 0.55463
108 2 0.958884 0.929366 0.44537
109 2 0.708884 0.820634 0.94537
110 2 0.291116 0.179366 0.0546302
111 2 0.541116 0.0706341 0.55463
112 2 0.958884 0.429366 0.44537
113 2 0.0966826 0.328451 0.627866
114 2 0.903317 0.671548 0.372134
115 2 0.153318 0.578451 0.872134
116 2 0.346682 0.921549 0.127866
117 2 0.0966826 0.828452 0.627866
118 2 0.903317 0.171549 0.372134
119 2 0.153318 0.0784514 0.872134
120 2 0.346683 0.421549 0.127866
121 2 0.596683 0.328451 0.627866
122 2 0.403317 0.671549 0.372134
123 2 0.653317 0.578451 0.872134
124 2 0.846682 0.921549 0.127866
125 2 0.596683 0.828451 0.627866
126 2 0.403318 0.171549 0.372134
127 2 0.653318 0.0784514 0.872134
128 2 0.846683 0.421548 0.127866
129 2 0.296176 0.226305 0.642858
130 2 0.703824 0.773695 0.357142
131 2 0.953824 0.476305 0.857142
132 2 0.546176 0.0236949 0.142858
133 2 0.296176 0.726305 0.642858
134 2 0.703824 0.273695 0.357142
135 2 0.953824 0.976305 0.857142
136 2 0.546176 0.523695 0.142858
137 2 0.796176 0.226305 0.642858
138 2 0.203824 0.773695 0.357142
139 2 0.453824 0.476305 0.857142
140 2 0.0461756 0.023695 0.142858
141 2 0.796176 0.726305 0.642858
142 2 0.203824 0.273695 0.357142
143 2 0.453824 0.976305 0.857142
144 2 0.0461756 0.523695 0.142858
145 2 0.321224 0.263604 0.95854
146 2 0.678776 0.736396 0.04146
147 2 0.928776 0.513604 0.54146
148 2 0.571224 0.986396 0.45854
149 2 0.321224 0.763604 0.95854
150 2 0.678776 0.236396 0.04146
151 2 0.928776 0.0136041 0.54146
152 2 0.571224 0.486396 0.45854
153 2 0.821224 0.263604 0.95854
154 2 0.178776 0.736396 0.04146
155 2 0.428776 0.513604 0.54146
156 2 0.0712238 0.986396 0.45854
157 2 0.821224 0.763604 0.95854
158 2 0.178776 0.236396 0.04146
159 2 0.428776 0.0136041 0.54146
160 2 0.0712238 0.486396 0.45854
161 2 0.385756 0.306567 0.688951
162 2 0.614244 0.693433 0.311049
163 2 0.864244 0.556567 0.811049
164 2 0.635756 0.943433 0.188951
165 2 0.385756 0.806567 0.688951
166 2 0.614244 0.193433 0.311049
167 2 0.864244 0.0565671 0.811049
168 2 0.635756 0.443433 0.188951
169 2 0.885756 0.306567 0.688951
170 2 0.114244 0.693433 0.311049
171 2 0.364244 0.556567 0.811049
172 2 0.135756 0.943433 0.188951
173 2 0.885756 0.806567 0.688951
174 2 0.114244 0.193433 0.311049
175 2 0.364244 0.0565671 0.811049
176 2 0.135756 0.443433 0.188951
177 2 0.186514 0.406603 0.67741
178 2 0.813486 0.593397 0.32259
179 2 0.0634858 0.656604 0.82259
180 2 0.436514 0.843396 0.17741
181 2 0.186514 0.906603 0.67741
182 2 0.813486 0.0933965 0.32259
183 2 0.0634858 0.156604 0.82259
184 2 0.436514 0.343397 0.17741
185 2 0.686514 0.406604 0.67741
186 2 0.313486 0.593396 0.32259
187 2 0.563486 0.656603 0.82259
188 2 0.936514 0.843396 0.17741
189 2 0.686514 0.906603 0.67741
190 2 0.313486 0.0933965 0.32259
191 2 0.563486 0.156604 0.82259
192 2 0.936514 0.343397 0.17741
193 3 0.151333 0.295517 0.786537
194 3 0.848667 0.704483 0.213463
195 3 0.0986665 0.545518 0.713464
196 3 0.401333 0.954483 0.286537
197 3 0.151333 0.795517 0.786537
198 3 0.848667 0.204483 0.213463
199 3 0.0986665 0.0455176 0.713464
200 3 0.401333 0.454483 0.286537
201 3 0.651333 0.295517 0.786537
202 3 0.348667 0.704483 0.213463
203 3 0.598667 0.545517 0.713463
204 3 0.901334 0.954482 0.286536
205 3 0.651333 0.795517 0.786537
206 3 0.348667 0.204482 0.213463
207 3 0.598667 0.0455175 0.713463
208 3 0.901333 0.454483 0.286537
209 3 0.0712453 0.304697 0.806022
210 3 0.928755 0.695303 0.193978
211 3 0.178754 0.554697 0.693978
212 3 0.321245 0.945303 0.306022
213 3 0.0712453 0.804697 0.806023
214 3 0.928755 0.195303 0.193978
215 3 0.178754 0.0546968 0.693978
216 3 0.321245 0.445303 0.306022
217 3 0.571245 0.304697 0.806022
218 3 0.428755 0.695303 0.193978
219 3 0.678755 0.554697 0.693978
220 3 0.821246 0.945303 0.306022
221 3 0.571245 0.804697 0.806022
222 3 0.428755 0.195303 0.193978
223 3 0.678755 0.0546968 0.693978
224 3 0.821245 0.445303 0.306023
225 3 0.194651 0.275046 0.63518
226 3 0.805349 0.724954 0.36482
227 3 0.0553496 0.525046 0.864819
228 3 0.444651 0.974954 0.135181
229 3 0.194651 0.775046 0.63518
230 3 0.805349 0.224954 0.36482
231 3 0.0553495 0.0250464 0.864819
232 3 0.444651 0.474954 0.13518
233 3 0.694651 0.275046 0.63518
234 3 0.305349 0.724954 0.36482
235 3 0.555349 0.525046 0.86482
236 3 0.94465 0.974954 0.135181
237 3 0.694651 0.775046 0.63518
238 3 0.305349 0.224954 0.364819
239 3 0.555349 0.0250463 0.864819
240 3 0.944651 0.474954 0.13518
241 3 0.151622 0.252596 0.528455
242 3 0.848378 0.747404 0.471545
243 3 0.0983774 0.502596 0.971545
244 3 0.401623 0.997404 0.0284548
245 3 0.151622 0.752596 0.528455
246 3 0.848378 0.247404 0.471545
247 3 0.0983774 0.00259572 0.971545
248 3 0.401622 0.497404 0.0284547
249 3 0.651623 0.252596 0.528455
250 3 0.348378 0.747404 0.471545
251 3 0.598378 0.502596 0.971545
252 3 0.901623 0.997404 0.028455
253 3 0.651622 0.752596 0.528455
254 3 0.348377 0.247404 0.471545
255 3 0.598377 0.00259572 0.971545
256 3 0.901622 0.497404 0.0284546
257 3 0.282694 0.233184 0.798733
258 3 0.717306 0.766816 0.201268
259 3 0.967306 0.483184 0.701267
260 3 0.532694 0.0168162 0.298733
261 3 0.282694 0.733184 0.798732
262 3 0.717306 0.266816 0.201267
263 3 0.967306 0.983184 0.701267
264 3 0.532694 0.516816 0.298733
265 3 0.782694 0.233184 0.798733
266 3 0.217306 0.766816 0.201267
267 3 0.467306 0.483184 0.701267
268 3 0.0326938 0.0168162 0.298733
269 3 0.782694 0.733184 0.798733
270 3 0.217306 0.266816 0.201267
271 3 0.467306 0.983184 0.701267
272 3 0.0326938 0.516816 0.298732
273 3 0.219584 0.193632 0.80512
274 3 0.780416 0.806368 0.19488
275 3 0.0304159 0.443632 0.69488
276 3 0.469584 0.0563679 0.30512
277 3 0.219584 0.693632 0.80512
278 3 0.780416 0.306368 0.19488
279 3 0.0304159 0.943632 0.69488
280 3 0.469584 0.556368 0.30512
281 3 0.719584 0.193632 0.80512
282 3 0.280416 0.806368 0.19488
283 3 0.530416 0.443632 0.69488
284 3 0.969584 0.0563678 0.30512
285 3 0.719584 0.693632 0.80512
286 3 0.280416 0.306368 0.19488
287 3 0.530416 0.943632 0.69488
288 3 0.969584 0.556368 0.30512
289 3 0.360887 0.305558 0.838121
290 3 0.639113 0.694442 0.161879
291 3 0.889113 0.555558 0.661879
292 3 0.610887 0.944442 0.338121
293 3 0.360887 0.805558 0.838121
294 3 0.639113 0.194442 0.161879
295 3 0.889113 0.0555584 0.661879
296 3 0.610887 0.444442 0.338121
297 3 0.860887 0.305558 0.838121
298 3 0.139113 0.694442 0.161879
299 3 0.389113 0.555558 0.661879
300 3 0.110887 0.944442 0.33812
301 3 0.860887 0.805558 0.838121
302 3 0.139113 0.194442 0.161879
303 3 0.389113 0.0555584 0.661879
304 3 0.110887 0.444442 0.338121
305 3 0.398793 0.353941 0.900368
306 3 0.601207 0.646059 0.099632
307 3 0.851207 0.603941 0.599632
308 3 0.648793 0.896059 0.400368
309 3 0.398793 0.853941 0.900368
310 3 0.601207 0.146059 0.099632
311 3 0.851207 0.103941 0.599632
312 3 0.648793 0.396059 0.400368
313 3 0.898793 0.353941 0.900368
314 3 0.101207 0.646059 0.099632
315 3 0.351207 0.603941 0.599632
316 3 0.148793 0.896059 0.400368
317 3 0.898793 0.853941 0.900368
318 3 0.101207 0.146059 0.0996319
319 3 0.351207 0.103941 0.599632
320 3 0.148793 0.396059 0.400368
321 3 0.284186 0.35564 0.672186
322 3 0.715814 0.64436 0.327814
323 3 0.965814 0.60564 0.827814
324 3 0.534186 0.89436 0.172186
325 3 0.284186 0.85564 0.672186
326 3 0.715814 0.14436 0.327814
327 3 0.965814 0.10564 0.827814
328 3 0.534186 0.39436 0.172186
329 3 0.784186 0.35564 0.672186
330 3 0.215814 0.64436 0.327814
331 3 0.465814 0.60564 0.827814
332 3 0.0341858 0.89436 0.172186
333 3 0.784186 0.85564 0.672186
334 3 0.215814 0.14436 0.327814
335 3 0.465814 0.10564 0.827814
336 3 0.0341863 0.39436 0.172186
337 3 0.328248 0.403631 0.64516
338 3 0.671752 0.596369 0.35484
339 3 0.921751 0.653631 0.85484
340 3 0.578249 0.846369 0.14516
341 3 0.328248 0.903631 0.64516
342 3 0.671751 0.0963694 0.35484
343 3 0.921751 0.153631 0.85484
344 3 0.578249 0.346369 0.14516
345 3 0.828249 0.403631 0.64516
346 3 0.171751 0.596369 0.35484
347 3 0.421751 0.653631 0.85484
348 3 0.0782486 0.846369 0.14516
349 3 0.828249 0.903631 0.64516
350 3 0.171751 0.0963694 0.35484
351 3 0.421751 0.153631 0.85484
352 3 0.0782485 0.346369 0.14516
353 3 0.240407 0.37045 0.831006
354 3 0.759593 0.62955 0.168994
355 3 0.00959314 0.62045 0.668995
356 3 0.490407 0.87955 0.331006
357 3 0.240407 0.87045 0.831006
358 3 0.759593 0.12955 0.168994
359 3 0.00959313 0.12045 0.668995
360 3 0.490407 0.37955 0.331006
361 3 0.740407 0.37045 0.831006
362 3 0.259593 0.62955 0.168994
363 3 0.509593 0.62045 0.668994
364 3 0.990407 0.87955 0.331005
365 3 0.740407 0.87045 0.831006
366 3 0.259593 0.12955 0.168994
367 3 0.509593 0.12045 0.668995
368 3 0.990407 0.37955 0.331006
369 3 0.205756 0.417935 0.874683
370 3 0.794244 0.582065 0.125317
371 3 0.0442436 0.667935 0.625316
372 3 0.455756 0.832065 0.374684
373 3 0.205756 0.917935 0.874683
374 3 0.794244 0.0820653 0.125317
375 3 0.0442436 0.167935 0.625316
376 3 0.455756 0.332065 0.374683
377 3 0.705756 0.417935 0.874684
378 3 0.294244 0.582065 0.125316
379 3 0.544244 0.667935 0.625317
380 3 0.955756 0.832065 0.374684
381 3 0.705756 0.917935 0.874683
382 3 0.294244 0.0820654 0.125316
383 3 0.544244 0.167935 0.625316
384 3 0.955756 0.332065 0.374683
385 4 0.00944087 0.30835 0.727664
386 4 0.990559 0.69165 0.272336
387 4 0.240559 0.55835 0.772337
388 4 0.259441 0.94165 0.227664
389 4 0.00944097 0.80835 0.727664
390 4 0.990559 0.19165 0.272336
391 4 0.240559 0.0583504 0.772337
392 4 0.259441 0.44165 0.227664
393 4 0.509441 0.30835 0.727664
394 4 0.490559 0.69165 0.272336
395 4 0.740559 0.55835 0.772336
396 4 0.759441 0.94165 0.227663
397 4 0.509441 0.80835 0.727664
398 4 0.490559 0.19165 0.272336
399 4 0.740559 0.0583504 0.772337
400 4 0.759441 0.44165 0.227664
401 4 0.0662105 0.298902 0.898901
402 4 0.933789 0.701098 0.101099
403 4 0.18379 0.548902 0.601098
404 4 0.316211 0.951098 0.398901
405 4 0.0662105 0.798902 0.898901
406 4 0.933789 0.201098 0.101099
407 4 0.18379 0.048902 0.601098
408 4 0.316211 0.451098 0.398901
409 4 0.566211 0.298902 0.898901
410 4 0.433789 0.701098 0.101099
411 4 0.683789 0.548902 0.601099
412 4 0.816211 0.951098 0.398902
413 4 0.566211 0.798902 0.898901
414 4 0.433789 0.201098 0.101099
415 4 0.683789 0.048902 0.601098
416 4 0.816211 0.451098 0.398901
417 4 0.183411 0.214352 0.491826
418 4 0.816589 0.785648 0.508174
419 4 0.0665885 0.464351 0.00817428
420 4 0.433411 0.0356486 0.991826
421 4 0.183411 0.714352 0.491826
422 4 0.816589 0.285649 0.508174
423 4 0.0665885 0.964351 0.00817427
424 4 0.433411 0.535649 0.991826
425 4 0.683411 0.214351 0.491826
426 4 0.316589 0.785649 0.508174
427 4 0.566589 0.464351 0.00817405
428 4 0.933412 0.0356488 0.991826
429 4 0.683411 0.714351 0.491826
430 4 0.316589 0.285649 0.508174
431 4 0.566588 0.964351 0.00817425
432 4 0.933411 0.535648 0.991826
433 4 0.0878059 0.274971 0.474881
434 4 0.912194 0.725029 0.525119
435 4 0.162194 0.524972 0.0251188
436 4 0.337806 0.975029 0.974881
437 4 0.0878061 0.774971 0.474882
438 4 0.912194 0.225029 0.525119
439 4 0.162194 0.0249715 0.0251188
440 4 0.337806 0.475029 0.974881
441 4 0.587806 0.274971 0.474881
442 4 0.412194 0.725029 0.525119
443 4 0.662194 0.524971 0.0251186
444 4 0.837806 0.975028 0.974881
445 4 0.587806 0.774971 0.474881
446 4 0.412194 0.225029 0.525119
447 4 0.662194 0.0249715 0.0251188
448 4 0.837806 0.475029 0.974882
449 4 0.190623 0.162434 0.727812
450 4 0.809377 0.837566 0.272188
451 4 0.0593768 0.412434 0.772188
452 4 0.440623 0.0875656 0.227812
453 4 0.190623 0.662434 0.727812
454 4 0.809377 0.337566 0.272188
455 4 0.0593768 0.912434 0.772188
456 4 0.440623 0.587566 0.227812
457 4 0.690623 0.162434 0.727812
458 4 0.309377 0.837566 0.272188
459 4 0.559377 0.412434 0.772188
460 4 0.940623 0.0875656 0.227812
461 4 0.690623 0.662434 0.727812
462 4 0.309377 0.337566 0.272188
463 4 0.559377 0.912434 0.772188
464 4 0.940623 0.587566 0.227812
465 4 0.202867 0.189043 0.891615
466 4 0.797133 0.810957 0.108385
467 4 0.0471334 0.439043 0.608385
468 4 0.452867 0.0609568 0.391615
469 4 0.202867 0.689043 0.891615
470 4 0.797133 0.310957 0.108385
471 4 0.0471334 0.939043 0.608385
472 4 0.452867 0.560957 0.391615
473 4 0.702867 0.189043 0.891615
474 4 0.297133 0.810957 0.108385
475 4 0.547133 0.439043 0.608385
476 4 0.952867 0.0609568 0.391615
477 4 0.702867 0.689043 0.891615
478 4 0.297133 0.310957 0.108385
479 4 0.547133 0.939043 0.608385
480 4 0.952867 0.560957 0.391615
481 4 0.430404 0.389336 0.856701
482 4 0.569596 0.610664 0.143299
483 4 0.819596 0.639336 0.643299
484 4 0.680404 0.860664 0.356701
485 4 0.430404 0.889336 0.856701
486 4 0.569596 0.110664 0.143299
487 4 0.819596 0.139336 0.643299
488 4 0.680404 0.360664 0.356701
489 4 0.930404 0.389336 0.856701
490 4 0.0695957 0.610664 0.143299
491 4 0.319596 0.639336 0.643299
492 4 0.180404 0.860664 0.356701
493 4 0.930404 0.889336 0.856701
494 4 0.0695957 0.110664 0.143299
495 4 0.319596 0.139336 0.643299
496 4 0.180404 0.360664 0.356701
497 4 0.399967 0.357119 0.996299
498 4 0.600033 0.642881 0.00370095
499 4 0.850033 0.607119 0.503701
500 4 0.649967 0.892881 0.496299
501 4 0.399967 0.857119 0.996299
502 4 0.600033 0.142881 0.00370096
503 4 0.850033 0.107119 0.503701
504 4 0.649967 0.392881 0.496299
505 4 0.899967 0.357119 0.996299
506 4 0.100033 0.642881 0.00370097
507 4 0.350033 0.607119 0.503701
508 4 0.149967 0.892881 0.496299
509 4 0.899967 0.857119 0.996299
510 4 0.100033 0.142881 0.00370099
511 4 0.350033 0.107119 0.503701
512 4 0.149967 0.392881 0.496299
513 4 0.298955 0.450264 0.643616
514 4 0.701045 0.549736 0.356384
515 4 0.951045 0.700264 0.856384
516 4 0.548955 0.799736 0.143616
517 4 0.298955 0.950264 0.643616
518 4 0.701045 0.0497361 0.356384
519 4 0.951045 0.200264 0.856384
520 4 0.548955 0.299736 0.143616
521 4 0.798955 0.450264 0.643616
522 4 0.201045 0.549736 0.356384
523 4 0.451045 0.700264 0.856384
524 4 0.0489548 0.799736 0.143616
525 4 0.798955 0.950264 0.643616
526 4 0.201045 0.0497361 0.356384
527 4 0.451045 0.200264 0.856384
528 4 0.0489547 0.299736 0.143616
529 4 0.389062 0.39515 0.614207
530 4 0.610938 0.60485 0.385793
531 4 0.860938 0.64515 0.885793
532 4 0.639062 0.85485 0.114207
533 4 0.389062 0.89515 0.614207
534 4 0.610938 0.10485 0.385793
535 4 0.860938 0.14515 0.885793
536 4 0.639062 0.35485 0.114207
537 4 0.889062 0.39515 0.614207
538 4 0.110938 0.60485 0.385793
539 4 0.360938 0.64515 0.885793
540 4 0.139062 0.85485 0.114207
541 4 0.889062 0.89515 0.614207
542 4 0.110938 0.10485 0.385793
543 4 0.360938 0.14515 0.885793
544 4 0.139062 0.35485 0.114207
545 4 0.196658 0.46214 0.824959
546 4 0.803342 0.53786 0.175041
547 4 0.0533423 0.71214 0.675041
548 4 0.446658 0.78786 0.324959
549 4 0.196658 0.96214 0.824959
550 4 0.803342 0.0378601 0.175041
551 4 0.0533423 0.21214 0.675041
552 4 0.446658 0.28786 0.324959
553 4 0.696658 0.46214 0.824959
554 4 0.303342 0.53786 0.175041
555 4 0.553342 0.71214 0.675041
556 4 0.946658 0.78786 0.324959
557 4 0.696658 0.96214 0.824959
558 4 0.303342 0.0378601 0.175041
559 4 0.553342 0.21214 0.675041
560 4 0.946658 0.28786 0.324959
561 4 0.198089 0.41456 0.966609
562 4 0.801911 0.58544 0.0333907
563 4 0.0519109 0.66456 0.533391
564 4 0.448089 0.83544 0.466609
565 4 0.198089 0.914559 0.966609
566 4 0.801911 0.0854405 0.0333907
567 4 0.0519109 0.16456 0.533391
568 4 0.448089 0.33544 0.466609
569 4 0.698089 0.41456 0.966609
570 4 0.301911 0.58544 0.0333907
571 4 0.551911 0.66456 0.533391
572 4 0.948089 0.83544 0.466609
573 4 0.698089 0.91456 0.966609
574 4 0.301911 0.0854404 0.0333907
575 4 0.551911 0.16456 0.533391
576 4 0.948089 0.335441 0.466609
ITEM: TIMESTEP
1000
ITEM: NUMBER OF ATOMS
576
ITEM: BOX BOUNDS xy xz yz pp pp pp
-4.8978324215866644e+00 1.7735616179503218e+01 -2.8059954219041316e-01
-1.3841719908098504e-01 2.5310286181951465e+01 -4.5856171728930857e+00
-8.3940671544477929e-02 1.2897267354244516e+01 5.9869471170609735e-02
ITEM: ATOMS id type xs ys zs
1 1 0.22617 0.319251 0.878085
2 1 0.758846 0.668345 0.126673
3 1 0.0193231 0.579169 0.636633
4 1 0.487123 0.928158 0.374724
5 1 0.251571 0.833064 0.87428
6 1 0.750464 0.17273 0.115321
7 1 0.0210572 0.0625886 0.622577
8 1 0.482619 0.423031 0.376963
9 1 0.737702 0.320788 0.879443
10 1 0.245415 0.676407 0.108758
11 1 0.512598 0.569935 0.614594
12 1 0.972121 0.931288 0.375014
13 1 0.74295 0.819155 0.887528
14 1 0.262548 0.188576 0.131713
15 1 0.52387 0.067355 0.615179
16 1 0.00365528 0.43333 0.372858
17 1 0.150283 0.300289 0.697315
18 1 0.844999 0.675767 0.304934
19 1 0.10384 0.552264 0.809669
20 1 0.409381 0.934355 0.194204
21 1 0.152377 0.815252 0.687267
22 1 0.842881 0.186704 0.298001
23 1 0.102426 0.0585368 0.798947
24 1 0.390806 0.422339 0.198646
25 1 0.661305 0.305192 0.693212
26 1 0.332595 0.693732 0.28997
27 1 0.600952 0.55796 0.80575
28 1 0.890866 0.943369 0.19325
29 1 0.652484 0.811957 0.710963
30 1 0.338819 0.19798 0.311638
31 1 0.60493 0.0643049 0.803955
32 1 0.906708 0.445502 0.198717
33 1 0.27939 0.253398 0.722943
34 1 0.726362 0.734413 0.299277
35 1 0.973617 0.504159 0.785349
36 1 0.534952 0.981614 0.203836
37 1 0.270989 0.761771 0.700196
38 1 0.718712 0.236052 0.29617
39 1 0.979118 0.0119012 0.802989
40 1 0.505772 0.481583 0.194581
41 1 0.782106 0.24802 0.730957
42 1 0.214815 0.752089 0.268267
43 1 0.475935 0.504849 0.788092
44 1 0.0184669 0.999723 0.210472
45 1 0.770676 0.760744 0.708436
46 1 0.212752 0.249978 0.286815
47 1 0.482257 0.0111705 0.795692
48 1 0.0207008 0.506563 0.202637
49 1 0.30087 0.285634 0.890167
50 1 0.688045 0.704358 0.121234
51 1 0.940282 0.548835 0.625706
52 1 0.561254 0.961564 0.383292
53 1 0.322812 0.798687 0.869942
54 1 0.682217 0.206791 0.122557
55 1 0.945147 0.0309719 0.619848
56 1 0.554729 0.458797 0.369892
57 1 0.810709 0.287851 0.898543
58 1 0.176373 0.716825 0.100432
59 1 0.436428 0.534871 0.616411
60 1 0.0470011 0.965054 0.379195
61 1 0.817332 0.788902 0.883173
62 1 0.18748 0.222666 0.113579
63 1 0.450486 0.0356866 0.618429
64 1 0.070409 0.475231 0.371909
65 1 0.321293 0.307777 0.728831
66 1 0.673098 0.684437 0.284414
67 1 0.939908 0.556672 0.801207
68 1 0.580867 0.930296 0.220975
69 1 0.318484 0.811022 0.697167
70 1 0.67351 0.183009 0.285488
71 1 0.93123 0.0627775 0.786495
72 1 0.559241 0.43282 0.20449
73 1 0.833386 0.297427 0.732213
74 1 0.161237 0.70536 0.269349
75 1 0.434916 0.555874 0.786218
76 1 0.064276 0.947843 0.21796
77 1 0.816754 0.811549 0.712907
78 1 0.166748 0.198292 0.277395
79 1 0.431504 0.0610482 0.777018
80 1 0.0724848 0.457752 0.202431
81 1 0.195067 0.352006 0.697481
82 1 0.790355 0.628733 0.296125
83 1 0.0648522 0.604278 0.819276
84 1 0.453459 0.880149 0.218377
85 1 0.202727 0.863616 0.690674
86 1 0.79711 0.134842 0.291831
87 1 0.0538903 0.10914 0.785506
88 1 0.445428 0.374359 0.215184
89 1 0.713603 0.352598 0.700725
90 1 0.276483 0.646585 0.289447
91 1 0.553858 0.609534 0.794657
92 1 0.938384 0.893729 0.199933
93 1 0.701026 0.863152 0.715577
94 1 0.28725 0.147371 0.298566
95 1 0.553419 0.115774 0.779094
96 1 0.958555 0.399098 0.198302
97 2 0.226922 0.331268 0.955192
98 2 0.761204 0.659959 0.0461876
99 2 0.0203506 0.585687 0.554139
100 2 0.478306 0.928424 0.451015
101 2 0.259739 0.837831 0.95742
102 2 0.750494 0.170648 0.0313495
103 2 0.0242904 0.068618 0.54061
104 2 0.482377 0.41876 0.463285
105 2 0.718279 0.332187 0.94934
106 2 0.242525 0.661247 0.0272105
107 2 0.510891 0.575589 0.534343
108 2 0.963519 0.924712 0.45253
109 2 0.747667 0.823534 0.973604
110 2 0.272284 0.180342 0.0565251
111 2 0.535094 0.0702812 0.540527
112 2 0.00609028 0.424925 0.45444
113 2 0.0835679 0.299831 0.647157
114 2 0.909783 0.668715 0.352228
115 2 0.16951 0.554205 0.850535
116 2 0.345194 0.930996 0.142084
117 2 0.0867915 0.821547 0.651235
118 2 0.908769 0.182538 0.348479
119 2 0.168882 0.0696401 0.844329
120 2 0.323965 0.411836 0.16529
121 2 0.602998 0.310222 0.628035
122 2 0.395252 0.682659 0.340809
123 2 0.664974 0.564273 0.848443
124 2 0.828355 0.941647 0.148889
125 2 0.58839 0.818725 0.663155
126 2 0.401708 0.193279 0.36962
127 2 0.669373 0.0714897 0.857458
128 2 0.84102 0.439466 0.155528
129 2 0.310514 0.226359 0.680571
130 2 0.705535 0.765208 0.338108
131 2 0.950564 0.472216 0.824586
132 2 0.562566 0.00880409 0.15927
133 2 0.281454 0.727874 0.652733
134 2 0.697396 0.264455 0.343549
135 2 0.955048 0.983511 0.848158
136 2 0.522438 0.510465 0.143464
137 2 0.79841 0.215368 0.686254
138 2 0.196808 0.790687 0.296075
139 2 0.447233 0.473122 0.82305
140 2 0.0390995 0.0312587 0.164248
141 2 0.782539 0.727977 0.65839
142 2 0.187646 0.282035 0.323336
143 2 0.458838 0.981169 0.841797
144 2 0.039012 0.540098 0.160895
145 2 0.335377 0.278595 0.974806
146 2 0.653457 0.719584 0.0404404
147 2 0.90248 0.544281 0.543547
148 2 0.590434 0.973005 0.466181
149 2 0.361545 0.790799 0.950772
150 2 0.636763 0.214043 0.0466807
151 2 0.906654 0.0190938 0.538385
152 2 0.587098 0.477304 0.444862
153 2 0.841234 0.279702 0.982209
154 2 0.139786 0.716721 0.014427
155 2 0.398523 0.525053 0.533442
156 2 0.0871526 0.973666 0.458383
157 2 0.861839 0.777191 0.960825
158 2 0.157708 0.231445 0.0300591
159 2 0.414483 0.0215169 0.540227
160 2 0.105165 0.488239 0.459358
161 2 0.378258 0.302848 0.704324
162 2 0.622039 0.687273 0.317597
163 2 0.892615 0.553276 0.839115
164 2 0.631952 0.929061 0.186141
165 2 0.360598 0.806176 0.651272
166 2 0.631817 0.182435 0.333455
167 2 0.89216 0.0646647 0.837609
168 2 0.612688 0.437887 0.174102
169 2 0.889497 0.290417 0.708763
170 2 0.115483 0.718135 0.305221
171 2 0.386819 0.55226 0.822261
172 2 0.116326 0.949708 0.184262
173 2 0.859627 0.808114 0.668661
174 2 0.118311 0.199321 0.31636
175 2 0.387004 0.0626919 0.817299
176 2 0.111338 0.466674 0.155479
177 2 0.152206 0.382765 0.651466
178 2 0.823987 0.594312 0.347344
179 2 0.112198 0.63446 0.861422
180 2 0.414918 0.845126 0.187312
181 2 0.165553 0.898656 0.653901
182 2 0.836736 0.102602 0.32713
183 2 0.0920887 0.146849 0.822315
184 2 0.413648 0.337374 0.175857
185 2 0.681482 0.386537 0.651468
186 2 0.312836 0.612812 0.331928
187 2 0.590009 0.646372 0.831278
188 2 0.899743 0.859056 0.156814
189 2 0.662406 0.898251 0.687872
190 2 0.318353 0.110314 0.335777
191 2 0.587525 0.153185 0.812266
192 2 0.923995 0.362935 0.160427
193 3 0.150113 0.289449 0.808704
194 3 0.836313 0.691162 0.196588
195 3 0.0957643 0.546471 0.695286
196 3 0.410927 0.955108 0.302054
197 3 0.17153 0.80818 0.818369
198 3 0.837172 0.202701 0.191694
199 3 0.103257 0.0399408 0.69238
200 3 0.403194 0.44466 0.31805
201 3 0.652662 0.295898 0.79721
202 3 0.328862 0.69779 0.170869
203 3 0.59126 0.548895 0.692074
204 3 0.893543 0.956672 0.306627
205 3 0.661483 0.795822 0.826305
206 3 0.341439 0.214193 0.20371
207 3 0.607769 0.0440406 0.703621
208 3 0.922859 0.456609 0.325441
209 3 0.0670538 0.299648 0.818877
210 3 0.913165 0.682445 0.172039
211 3 0.172383 0.565015 0.673983
212 3 0.336666 0.936455 0.326988
213 3 0.108466 0.830202 0.859275
214 3 0.910246 0.195485 0.159911
215 3 0.167648 0.0675149 0.659115
216 3 0.334066 0.426738 0.355765
217 3 0.575319 0.319207 0.803267
218 3 0.399166 0.668077 0.159217
219 3 0.664286 0.558494 0.660142
220 3 0.818278 0.934492 0.322847
221 3 0.59177 0.807364 0.864636
222 3 0.417093 0.196764 0.182365
223 3 0.686579 0.05985 0.687712
224 3 0.858443 0.436646 0.369841
225 3 0.192412 0.255711 0.658206
226 3 0.811178 0.725245 0.35814
227 3 0.0650239 0.503462 0.839151
228 3 0.446744 0.971656 0.140644
229 3 0.179022 0.768363 0.645717
230 3 0.806306 0.230499 0.350005
231 3 0.0659828 0.017205 0.8553
232 3 0.415676 0.466042 0.144049
233 3 0.696198 0.25242 0.662278
234 3 0.303638 0.744255 0.327093
235 3 0.565987 0.509164 0.842796
236 3 0.930277 0.990478 0.153014
237 3 0.680145 0.766985 0.659224
238 3 0.298135 0.244464 0.353519
239 3 0.568668 0.0226159 0.858865
240 3 0.92861 0.494324 0.153008
241 3 0.165516 0.247871 0.538471
242 3 0.842916 0.757855 0.455997
243 3 0.0851598 0.49914 0.958188
244 3 0.422321 0.00363537 0.0413437
245 3 0.153481 0.763654 0.526415
246 3 0.835076 0.252398 0.461156
247 3 0.104902 0.008781 0.973495
248 3 0.374936 0.479688 0.028012
249 3 0.678326 0.243953 0.546155
250 3 0.329809 0.744028 0.445857
251 3 0.584781 0.509509 0.961921
252 3 0.903786 0.997695 0.0352292
253 3 0.649867 0.759311 0.542505
254 3 0.323974 0.256912 0.469309
255 3 0.603916 0.995249 0.96401
256 3 0.900859 0.493295 0.034152
257 3 0.289478 0.233177 0.835606
258 3 0.712446 0.754463 0.184269
259 3 0.947867 0.492206 0.668042
260 3 0.551494 0.00957343 0.317174
261 3 0.298782 0.744005 0.813654
262 3 0.695906 0.257339 0.178384
263 3 0.958782 0.983283 0.682174
264 3 0.527414 0.50677 0.300041
265 3 0.789983 0.233087 0.843194
266 3 0.200435 0.769696 0.150547
267 3 0.454975 0.482194 0.668662
268 3 0.0349767 0.017911 0.323222
269 3 0.800895 0.738076 0.825
270 3 0.198576 0.272896 0.169742
271 3 0.471915 0.986104 0.686851
272 3 0.0438485 0.52516 0.312069
273 3 0.224728 0.197208 0.845057
274 3 0.781357 0.786631 0.165575
275 3 0.00456955 0.457391 0.631961
276 3 0.483725 0.0455688 0.323204
277 3 0.23935 0.709058 0.844167
278 3 0.760879 0.291343 0.157199
279 3 0.0259207 0.950657 0.669042
280 3 0.466731 0.542184 0.322707
281 3 0.714196 0.20394 0.847388
282 3 0.271661 0.798289 0.13723
283 3 0.524118 0.454664 0.648841
284 3 0.97008 0.0524692 0.337487
285 3 0.740908 0.703874 0.854939
286 3 0.26963 0.306743 0.164681
287 3 0.531355 0.95143 0.658671
288 3 0.979064 0.555033 0.339773
289 3 0.358763 0.316494 0.843544
290 3 0.629696 0.676018 0.164491
291 3 0.891218 0.576277 0.682558
292 3 0.624211 0.929871 0.334126
293 3 0.373553 0.823004 0.812132
294 3 0.625499 0.174441 0.177597
295 3 0.884347 0.0608946 0.672138
296 3 0.609918 0.430402 0.325256
297 3 0.873705 0.30823 0.846655
298 3 0.114457 0.698926 0.152956
299 3 0.390474 0.564265 0.671494
300 3 0.1026 0.935521 0.328103
301 3 0.867677 0.821624 0.822685
302 3 0.124227 0.195211 0.160629
303 3 0.387382 0.0621309 0.658081
304 3 0.126292 0.453924 0.316393
305 3 0.390248 0.367615 0.901395
306 3 0.594394 0.624281 0.108647
307 3 0.834708 0.615753 0.611384
308 3 0.644041 0.878114 0.39081
309 3 0.413741 0.874091 0.864339
310 3 0.594427 0.122875 0.120474
311 3 0.856151 0.112676 0.6195
312 3 0.641145 0.378989 0.384566
313 3 0.91508 0.360239 0.892829
314 3 0.082785 0.643292 0.11758
315 3 0.34829 0.611792 0.608897
316 3 0.152256 0.893114 0.401708
317 3 0.923373 0.862296 0.889681
318 3 0.0967376 0.141758 0.110546
319 3 0.346457 0.111289 0.601515
320 3 0.165579 0.401587 0.365312
321 3 0.263451 0.349606 0.659716
322 3 0.720809 0.638288 0.340486