LAMMPS data file via write_data, version 15 Apr 2020, timestep = 80000

576 atoms
4 atom types

3.7387510076583297e-01 1.7330125372233958e+01 xlo xhi
1.1398096620863463e-01 2.4998018545491078e+01 ylo yhi
-3.7102265468548534e-01 1.3184349337385557e+01 zlo zhi
6.5140933158279429e-02 -9.8926173111538096e-01 -2.2332461025078729e-01 xy xz yz

Masses

1 12.0107
2 1.00794
3 14.0067
4 15.9994

Atoms # full

48 1 1 5.4398718932961901e-02 5.7723152909868591e-01 1.0293925529033134e+01 2.4620775588563557e+00 0 0 0
140 1 2 2.7174692151833774e-01 7.3050358909742563e-01 2.3407441868559594e+01 1.2758698331180873e+00 0 -1 0
144 1 2 2.8179050348250656e-01 9.6762511351633440e-01 1.0683695478708032e+01 1.5213330290742864e+00 0 0 0
268 1 3 -1.3863943427142023e-01 1.1346536690625553e+00 2.3819214067565717e+01 3.2917740600287582e+00 0 -1 0
279 1 3 3.3887543350808608e-01 1.1484863158965006e+00 1.3330803550888509e-01 7.8827106795072330e+00 0 1 0
332 1 3 -1.4209080684722220e-01 1.6535313929771451e+01 2.0610188718635065e+01 2.6596015737676950e+00 -1 0 0
336 1 3 -1.3105412463920452e-01 1.6730279109504934e+01 7.9541379148891895e+00 2.9221126808255207e+00 -1 0 0
355 1 3 -1.1434824607198908e-01 1.6333283166244804e+01 1.6620230899164056e+01 7.7726601604214176e+00 -1 0 0
375 1 3 2.9852201273932988e-01 4.9583712827816373e-01 5.5829250594981099e+00 7.1817168190755005e+00 0 0 0
471 1 4 -2.4709888063141738e-01 1.7271275143328966e+00 2.9182038556582007e-01 6.7533036997367901e+00 0 1 0
494 1 4 -2.6211123129385977e-01 5.3353787570107225e-01 3.2252947496043278e+00 1.5795200905721343e+00 0 0 0
567 1 4 -2.1465272706746280e-01 7.5456221038142202e-01 5.7421223641854331e+00 5.9532448925402175e+00 0 0 0
1 1 1 3.4221732824694852e-02 3.3926158104425395e+00 8.8884723735335864e+00 1.2451573034754553e+01 0 0 0
5 1 1 3.8271131327814727e-02 3.3055245631730612e+00 2.1520224702399894e+01 1.2458438471043667e+01 0 0 0
10 1 1 5.7844572103493710e-02 4.6111473128187308e+00 1.6287912301992819e+01 9.3124417187948816e-01 0 0 0
14 1 1 5.0825134041881159e-02 4.6853270621971692e+00 3.8386096923069810e+00 4.8186640670936864e-01 0 0 0
17 1 1 5.5289240018985435e-02 2.3811202171659289e+00 9.1853775618926878e+00 1.0260411150811471e+01 0 0 0
19 1 1 4.7492901346187014e-02 8.9802677800103725e-01 1.5576209530808136e+01 9.3469672093884810e+00 0 0 0
21 1 1 4.7689535033938968e-02 2.4424578252267088e+00 2.1695900517543301e+01 1.0195742452392778e+01 0 0 0
23 1 1 5.9677642516506688e-02 1.1210829451626003e+00 3.1595990194810954e+00 9.2575441506655416e+00 0 0 0
26 1 1 6.4667696071052022e-02 6.2165719394669896e+00 1.6370351443232728e+01 2.7777494624414629e+00 0 0 0
30 1 1 5.8911981102161511e-02 6.2984905239145945e+00 3.8710795871378041e+00 2.2420378208661957e+00 0 0 0
33 1 1 5.2699980617944057e-02 4.1506204140526766e+00 7.4760057827252471e+00 9.8089226748039984e+00 0 0 0
37 1 1 6.9776143083264464e-02 4.1232792896438379e+00 1.9937886682059002e+01 9.8688352375119628e+00 0 0 0
42 1 1 6.3587172096209385e-02 4.1003437669801501e+00 1.6782929416912907e+01 3.9258550717508305e+00 0 0 0
46 1 1 4.3068342396284875e-02 4.2576851562426850e+00 4.4387045139515759e+00 3.5484407881050242e+00 0 0 0
49 1 1 6.0948349488570336e-02 4.5175845701568500e+00 7.8514212719195262e+00 1.2141837067773842e+01 0 0 0
53 1 1 5.9670505550934116e-02 4.4055794831518975e+00 2.0399790532427041e+01 1.2320314001103565e+01 0 0 0
58 1 1 5.0693463025216358e-02 3.2636964983570667e+00 1.6515907840225466e+01 1.7453135937081421e+00 0 0 0
60 1 1 5.8379361632745097e-02 1.2526554285054810e+00 2.2789206807248974e+01 4.4338995299624591e+00 0 0 0
62 1 1 6.0129434011057269e-02 3.3860459623582342e+00 4.1718002756883479e+00 1.3097846169746665e+00 0 0 0
64 1 1 6.8901120641641958e-02 1.3897087302210047e+00 1.0129742700062994e+01 4.7553775176625743e+00 0 0 0
65 1 1 4.9347724835424586e-02 5.2462190782974876e+00 8.5381075262996262e+00 9.9644256004786556e+00 0 0 0
69 1 1 5.0860780851033266e-02 5.2855533351230530e+00 2.0921924147634215e+01 1.0015973011949225e+01 0 0 0
74 1 1 4.7625371290420437e-02 3.7639166061595342e+00 1.5311669545599459e+01 3.7020597519726817e+00 0 0 0
76 1 1 5.2957900939751265e-02 7.3922639309928928e-01 2.1533720417053935e+01 2.4894049172926862e+00 0 0 0
78 1 1 5.8568118408678788e-02 3.7859433828443314e+00 3.0087553017493511e+00 3.3471743509864873e+00 0 0 0
80 1 1 6.3595819165542300e-02 9.8179515434600095e-01 8.8211509879972532e+00 2.7828965481404664e+00 0 0 0
81 1 1 5.3354630274599454e-02 3.5090932100753989e+00 1.0215569005155286e+01 1.0450401907659682e+01 0 0 0
83 1 1 4.2002355420905219e-02 1.6625787750699828e+01 1.6447546640372060e+01 9.2998439750438280e+00 -1 0 0
85 1 1 5.9652932479772047e-02 3.5533845675955966e+00 2.2739602787575748e+01 1.0363380604074763e+01 0 0 0
87 1 1 4.2957866123898597e-02 -8.3625235134767689e-02 4.0979427945200877e+00 9.1469437922299619e+00 0 0 0
90 1 1 5.6273005778324101e-02 5.8113969875823246e+00 1.4940481453459251e+01 2.4769479046650908e+00 0 0 0
94 1 1 4.7296527015308731e-02 5.7666089924456063e+00 2.4361051957872486e+00 2.0415157778081041e+00 0 0 0
97 1 2 2.7674462545715217e-01 4.1936042993949059e+00 9.2208618652038989e+00 -2.2328632579513008e-03 0 0 1
101 1 2 2.7704006221017946e-01 4.0456306998445113e+00 2.1860286728334756e+01 -2.7724894120702726e-02 0 0 1
106 1 2 2.5603883570265723e-01 4.4268226899731795e+00 1.6492799551741356e+01 -1.8771299144557060e-01 0 0 0
110 1 2 2.6618711337715673e-01 3.5234842867048530e+00 3.7638140392950228e+00 1.2938760243521163e+01 0 0 -1
113 1 2 2.7697588050926031e-01 1.4180345542658024e+00 9.7027050980940039e+00 9.8505813225409682e+00 0 0 0
115 1 2 2.6739816942468930e-01 1.7517377472645146e+00 1.6121498627866060e+01 9.7977298696840656e+00 0 0 0
116 1 2 2.8670075297348568e-01 5.7167083866059949e+00 2.2495984863926125e+01 3.5062998389678688e+00 0 0 0
117 1 2 2.6960731375535080e-01 1.5417943924405118e+00 2.2132813142146780e+01 9.6658103581249506e+00 0 0 0
119 1 2 2.7202435704744155e-01 2.0502748674981706e+00 3.6552834518291766e+00 9.7488440225976163e+00 0 0 0
120 1 2 2.9042136234567567e-01 5.7231120152022932e+00 1.0340075675840652e+01 3.3057804399186095e+00 0 0 0
122 1 2 2.7752296236555329e-01 7.3552135768730285e+00 1.6505765946311520e+01 2.9760251850924853e+00 0 0 0
126 1 2 2.8012347666565590e-01 7.4039912229280933e+00 3.8776676136807566e+00 2.2661076832976037e+00 0 0 0
129 1 2 2.8126314949530612e-01 4.4475244486198573e+00 6.7167190465839282e+00 9.0920056678010468e+00 0 0 0
133 1 2 2.8525200222479186e-01 4.3847025397259731e+00 1.8977723332561823e+01 9.2619333128185239e+00 0 0 0
138 1 2 2.7702845125736220e-01 3.6851781605900760e+00 1.7135929462624659e+01 4.9190550946290328e+00 0 0 0
142 1 2 2.7558178002105488e-01 3.8375881033830912e+00 4.9579995754865598e+00 4.5063822627300123e+00 0 0 0
145 1 2 2.4481485628996516e-01 5.7472325074799357e+00 7.6823060552173414e+00 -3.6720472180088254e-01 0 0 1
149 1 2 2.7110142847556495e-01 5.5594240202554266e+00 2.0167242517017826e+01 -2.2878257259789275e-01 0 0 1
154 1 2 2.6666709520456983e-01 2.4182995387991610e+00 1.6940434183335412e+01 1.1292598411526864e+00 0 0 0
156 1 2 2.6712355178890157e-01 2.1542461824701804e+00 2.3205497017781383e+01 5.0291327913272728e+00 0 0 0
158 1 2 2.7922484311395712e-01 2.5460935084332523e+00 4.3497668205008626e+00 5.6360500409663050e-01 0 0 0
160 1 2 2.7938135147979892e-01 2.2807274919202123e+00 1.0491421274459880e+01 5.3859677771743470e+00 0 0 0
161 1 2 2.8887437718667830e-01 6.1552028550642301e+00 8.3206184546331627e+00 9.3108916883675015e+00 0 0 0
165 1 2 2.7857060471375583e-01 6.2174476277660951e+00 2.0705189400617272e+01 9.4217076954476120e+00 0 0 0
170 1 2 2.8056642443985347e-01 3.3804837187582821e+00 1.4742481040397145e+01 4.5735716328903600e+00 0 0 0
172 1 2 2.7719029919648286e-01 1.3891530412526081e+00 2.1094218410196682e+01 1.6781217208052941e+00 0 0 0
174 1 2 2.7607682598483158e-01 3.1957602496146542e+00 2.7561280393174536e+00 4.2966417638153231e+00 0 0 0
176 1 2 2.7398377175348287e-01 1.6471578861426281e+00 8.3404381374316952e+00 1.9692210309831384e+00 0 0 0
177 1 2 2.8197833952726536e-01 3.1945041978125364e+00 1.1277430456977005e+01 1.0041124632513334e+01 0 0 0
179 1 2 2.7416193548648882e-01 -2.3494524093146346e-01 1.7489300521058404e+01 9.6312794048436530e+00 0 0 0
181 1 2 2.8206851227548996e-01 3.3373252643508717e+00 2.3789328271909277e+01 9.8444418235409472e+00 0 0 0
183 1 2 2.7820411403955531e-01 2.3526501827438207e-02 5.1068059364395024e+00 9.5771885405526866e+00 0 0 0
186 1 2 2.8736511409558380e-01 6.6528203545965052e+00 1.4153374731953923e+01 2.4621983798811766e+00 0 0 0
190 1 2 2.8106754249896598e-01 6.5579668786113645e+00 1.6370718545602647e+00 2.0610982611314839e+00 0 0 0
193 1 3 -1.2673320070706054e-01 2.0955523010227286e+00 8.6157009433546836e+00 1.1694048135549966e+01 0 0 0
195 1 3 -1.2634331131302548e-01 1.3215594037105092e+00 1.5199611180529873e+01 7.8758192745584532e+00 0 0 0
197 1 3 -1.3471114408443641e-01 2.0926764020054418e+00 2.1126318441429454e+01 1.1656078336417721e+01 0 0 0
199 1 3 -1.3473477611993251e-01 1.5595354911394734e+00 2.7612962437752659e+00 7.7900177054646980e+00 0 0 0
202 1 3 -1.5547718036763705e-01 5.7320396408873933e+00 1.7170367706557101e+01 1.4716991711348522e+00 0 0 0
206 1 3 -1.5372134974692808e-01 5.8429188970426678e+00 4.7071902396900223e+00 9.6892862154686554e-01 0 0 0
209 1 3 3.4745466593778196e-01 9.4965005266916525e-01 9.4527790360134016e+00 1.2333061828765555e+01 0 0 0
211 1 3 3.6609817316139698e-01 2.5139972701261737e+00 1.6089032667825016e+01 7.3638040732471115e+00 0 0 0
212 1 3 3.0408712526452136e-01 6.2969089362748321e+00 2.3490404496161673e+01 5.9653613671686552e+00 0 0 0
213 1 3 3.6337554613238704e-01 7.7775152153329008e-01 2.1797930143183017e+01 1.2191545456125496e+01 0 0 0
215 1 3 3.5463007394467128e-01 2.6822218173663206e+00 3.6952258990323026e+00 7.3061802711901063e+00 0 0 0
216 1 3 3.1954315864470956e-01 6.0034342660968667e+00 1.0928023005656028e+01 6.0019135040213607e+00 0 0 0
218 1 3 3.2682608628834942e-01 6.8470482843909721e+00 1.7505316554794426e+01 4.2139882727185951e-01 0 0 0
222 1 3 3.2100974931515852e-01 6.9057142249983441e+00 4.9218907973001693e+00 -1.3212885718808548e-01 0 0 0
225 1 3 -1.1988325047417207e-01 2.8255375043524751e+00 8.0961980932216751e+00 9.2795617368671692e+00 0 0 0
227 1 3 -1.3421647496220537e-01 6.7193916457871750e-01 1.4326400206283862e+01 1.0248953994826067e+01 0 0 0
229 1 3 -1.2659727102772000e-01 2.8251068808251549e+00 2.0507131739760169e+01 9.3083965896015535e+00 0 0 0
231 1 3 -1.5772650973679506e-01 8.5747424610703959e-01 1.9190102067690531e+00 1.0055456196509450e+01 0 0 0
234 1 3 -1.3123051584327958e-01 5.5940074021261577e+00 1.6962878797666512e+01 4.0367077778675204e+00 0 0 0
238 1 3 -9.0269600422047042e-02 5.7705155361815041e+00 4.5623212115258491e+00 3.5393986419586017e+00 0 0 0
241 1 3 3.1970936236230929e-01 2.9732023932930192e+00 8.7177649132836077e+00 7.8945606337478447e+00 0 0 0
243 1 3 3.1759044861303237e-01 5.3894274654723151e-01 1.4691624146454908e+01 1.1698981485900354e+01 0 0 0
245 1 3 3.2122234066341110e-01 2.8671465387578556e+00 2.0926696828061644e+01 7.8165916266884059e+00 0 0 0
247 1 3 3.5039770959019029e-01 8.3153446405528797e-01 2.1677822987667845e+00 1.1595802604419251e+01 0 0 0
250 1 3 3.3369684385042164e-01 6.2685814078243389e+00 1.6395403530796507e+01 5.3148786958684635e+00 0 0 0
254 1 3 3.0671284893337025e-01 6.4812312942984578e+00 3.8135420394414670e+00 4.7062310997182673e+00 0 0 0
257 1 3 -1.1954205870953066e-01 4.0782990017580607e+00 6.7270933514827549e+00 1.1168072342654746e+01 0 0 0
261 1 3 -1.2249155726002858e-01 4.0428208518492728e+00 1.9256151693257436e+01 1.1251392184534286e+01 0 0 0
266 1 3 -1.3439654768512810e-01 3.3111538590752851e+00 1.7612201107237610e+01 2.8020120923258025e+00 0 0 0
270 1 3 -1.2033250435099413e-01 3.5041025960870615e+00 5.2452570479830678e+00 2.3782228426192775e+00 0 0 0
272 1 3 -1.2815452241789435e-01 1.3250858303536535e+00 1.1084154401608597e+01 3.5404790388553891e+00 0 0 0
273 1 3 3.6484695836526232e-01 2.7890873726461098e+00 5.9442529152583603e+00 1.1441855726266983e+01 0 0 0
277 1 3 3.4182617044468466e-01 2.6743200652293249e+00 1.8620943850776513e+01 1.1516009704670836e+01 0 0 0
282 1 3 3.5310471246247915e-01 4.0840528719354969e+00 1.8849564910404183e+01 2.3435557655502519e+00 0 0 0
286 1 3 3.5270977814674154e-01 4.2278523801263859e+00 6.5381153034460961e+00 1.9393054508725842e+00 0 0 0
289 1 3 -1.1185833821689917e-01 5.7296101326399373e+00 8.5268210488505218e+00 1.1463911498723952e+01 0 0 0
293 1 3 -9.9546777652215340e-02 5.6303584677550553e+00 2.0936082625866000e+01 1.1734758409416312e+01 0 0 0
298 1 3 -1.2221295024777620e-01 2.8041697682796642e+00 1.5269711397375326e+01 2.4034433707138412e+00 0 0 0
300 1 3 -1.1597093755520475e-01 1.7475191302861945e+00 2.1526303831837140e+01 3.7766762455166418e+00 0 0 0
302 1 3 -1.2706069251980093e-01 2.8790121752811548e+00 2.9598733692732080e+00 2.1037360447312108e+00 0 0 0
304 1 3 -1.2904519013125690e-01 1.7695970957594958e+00 8.8476567259619312e+00 4.1489341029585791e+00 0 0 0
314 1 3 3.3004109598006615e-01 1.2697849879271170e+00 1.5353742094392846e+01 2.7384948812156225e+00 0 0 0
315 1 3 3.2542091931605344e-01 4.8408285948098229e+00 1.3965242125360898e+01 8.0227337629939086e+00 0 0 0
316 1 3 3.2443263549026752e-01 3.1641548511832003e+00 2.1685157635459909e+01 3.2473763336485302e+00 0 0 0
318 1 3 3.2842773039089168e-01 1.4023805059448571e+00 3.1590055059033029e+00 2.5115356934770792e+00 0 0 0
319 1 3 3.3476940189430704e-01 5.1847769112739766e+00 1.4704009945628778e+00 7.4973359370150785e+00 0 0 0
320 1 3 3.2047842591291481e-01 3.2757197140162333e+00 8.6820858306736621e+00 3.8129781911542047e+00 0 0 0
321 1 3 -1.4584791685271509e-01 4.7315746679772079e+00 9.9434908078705053e+00 9.5973141531466091e+00 0 0 0
325 1 3 -1.5608701205059369e-01 4.8757409247059833e+00 2.2321966688750543e+01 9.6819486234534153e+00 0 0 0
330 1 3 -1.5748713388449226e-01 4.9468493163572447e+00 1.4355533100866847e+01 3.6343105930620965e+00 0 0 0
334 1 3 -1.4383679772373778e-01 4.9551271047431680e+00 1.9517519387668723e+00 3.1883473958963027e+00 0 0 0
337 1 3 3.6402479489809114e-01 5.8652427529084576e+00 1.0977325729300560e+01 9.8014024331156833e+00 0 0 0
341 1 3 3.5895081842952081e-01 6.0011584564611811e+00 2.3339430106593902e+01 9.9511391006157588e+00 0 0 0
346 1 3 3.3830493055347177e-01 4.5370670034543759e+00 1.2939767790740390e+01 3.2192706240687881e+00 0 0 0
348 1 3 3.3821426128991960e-01 1.7058030015955588e+01 1.9201214988237950e+01 3.0471345773388210e+00 -1 0 0
350 1 3 3.5610110436509407e-01 4.3993712700782899e+00 5.5042785602894018e-01 2.8815181620362993e+00 0 0 0
352 1 3 3.6100397680624052e-01 1.7050358435663174e+01 6.4799074949405941e+00 3.2378261871224594e+00 -1 0 0
353 1 3 -1.1524016274350687e-01 3.8167578633378567e+00 1.0290110171619714e+01 1.1996946707840873e+01 0 0 0
357 1 3 -1.1427236126988821e-01 3.7636364999667249e+00 2.2892513420181913e+01 1.1882660120446015e+01 0 0 0
362 1 3 -1.3603446874054076e-01 5.0447780366010466e+00 1.4851863415555780e+01 1.0932617694323317e+00 0 0 0
366 1 3 -1.3678432599968735e-01 5.0643644842465276e+00 2.3824434245477835e+00 6.3733551514953168e-01 0 0 0
369 1 3 2.9940652309215543e-01 3.0063795216843232e+00 1.1443666487132665e+01 1.2632549377966132e+01 0 0 0
371 1 3 3.0953081198872373e-01 3.4661314385204450e-02 1.7889551582598656e+01 7.2164798025464787e+00 0 0 0
373 1 3 3.0561018262917733e-01 3.0226340964919705e+00 2.4056355316670150e+01 1.2554564625896010e+01 0 0 0
378 1 3 3.3543782997880356e-01 5.9281588446518336e+00 1.4338052928350271e+01 -6.2597527242593209e-02 0 0 0
382 1 3 3.3154220285368502e-01 5.0654860895796174e+00 1.6631361821782784e+00 1.3117985213602385e+01 0 0 -1
385 1 4 -2.4449540327876884e-01 2.3693945226751667e-01 1.0238280308113866e+01 1.1597542813320718e+01 0 0 0
387 1 4 -2.7452153939848123e-01 3.0116694290079984e+00 1.6889108751132191e+01 8.1985754726225260e+00 0 0 0
388 1 4 -2.1560505988244089e-01 5.0906485684538136e+00 2.3373319502068291e+01 5.5705434220085905e+00 0 0 0
389 1 4 -2.5698544594137790e-01 2.3995215163391115e-01 2.2708991960946115e+01 1.1471260188756887e+01 0 0 0
391 1 4 -2.6073701870788207e-01 3.1615924027181035e+00 4.5750537375370088e+00 8.1000321539494031e+00 0 0 0
392 1 4 -2.4643840095384065e-01 4.8318654310551254e+00 1.0669690509494602e+01 5.5434420176702286e+00 0 0 0
401 1 4 -3.2227551639376806e-01 1.7630892989094846e+00 9.6016081081147622e+00 4.5576337318991134e-02 0 0 1
403 1 4 -3.3254666022325818e-01 3.1649119059647877e+00 1.5775832710922177e+01 6.2803869248454536e+00 0 0 0
405 1 4 -3.3658091321601946e-01 1.4309339803305514e+00 2.1856025025118647e+01 -1.5106296372170158e-01 0 0 1
407 1 4 -3.3096026795254158e-01 2.9467643603326894e+00 3.6447919436304477e+00 6.0402624520929482e+00 0 0 0
408 1 4 -2.5684482985489315e-01 6.1399111844948528e+00 1.1506814337019279e+01 7.1421910135392510e+00 0 0 0
410 1 4 -2.7356519767673448e-01 5.5461826506975553e+00 1.7854593338445703e+01 1.2888978689663620e+01 0 0 -1
414 1 4 -2.8020600616089680e-01 5.6093787580286154e+00 5.3226067534907591e+00 1.2320448804426142e+01 0 0 -1
417 1 4 -2.0264353767751231e-01 3.9161778793408821e+00 8.2670545055315579e+00 7.0894562572218094e+00 0 0 0
419 1 4 -1.9686578731850507e-01 -2.2541499050060132e-01 1.4015201197895047e+01 1.2484076972878579e+01 0 0 0
421 1 4 -1.9470970309456745e-01 3.6762401611577222e+00 2.0320894389418513e+01 7.0116770363465877e+00 0 0 0
423 1 4 -2.0527681860218333e-01 -1.0496739787814791e-01 1.6746143581348758e+00 1.2319934244290895e+01 0 1 0
426 1 4 -2.2513634164069501e-01 6.0026795951633520e+00 1.6811834258767149e+01 6.4760066147633024e+00 0 0 0
430 1 4 -2.3021611607991260e-01 6.1175475512703965e+00 3.9569076574294488e+00 5.9479393793202000e+00 0 0 0
433 1 4 -3.3221939311859222e-01 2.1635863658026313e+00 9.6380674696828255e+00 7.5233655389147573e+00 0 0 0
435 1 4 -2.7424847600685831e-01 1.2050292047527451e+00 1.5699182754156622e+01 1.2171367569393176e+01 0 0 -1
436 1 4 -3.4491632052075605e-01 5.7577924101234359e+00 2.1589977364808512e+01 1.2981288370218131e+00 0 0 1
437 1 4 -2.9845800062720346e-01 1.8963662077799015e+00 2.1654346086645141e+01 7.3815427487974059e+00 0 0 0
439 1 4 -3.3335282782824716e-01 1.6253963101062316e+00 3.0264095448851913e+00 1.2056454186060190e+01 0 0 -1
440 1 4 -3.5074089851166401e-01 5.9862684288714432e+00 9.5395082799933331e+00 1.1550486974273886e+00 0 0 1
446 1 4 -3.1552640433486701e-01 7.3778063096483297e+00 2.9524889686641624e+00 4.4179063964580036e+00 0 0 0
449 1 4 -3.2148486745696603e-01 2.0698140423232121e+00 5.6505334620540122e+00 1.0436937432744955e+01 0 0 0
451 1 4 -3.4453100424937261e-01 1.4228939539104382e+00 1.1754531909768920e+01 9.2962460519902130e+00 0 0 0
453 1 4 -2.9120811860621820e-01 2.0419754097408305e+00 1.8355353091524734e+01 1.0455580412613781e+01 0 0 0
455 1 4 -3.4904949266854307e-01 1.7520046031036189e+00 2.4226150017771644e+01 8.7682334527249957e+00 0 0 0
458 1 4 -2.9625607730036613e-01 4.9847241789686656e+00 1.9314041069864317e+01 3.0957951305291944e+00 0 0 0
462 1 4 -3.0573771156196983e-01 5.4165603068879111e+00 6.7811154924292110e+00 2.4134559974357455e+00 0 0 0
465 1 4 -3.3867586444762626e-01 2.4994101676750633e+00 5.6249630534131807e+00 1.2673406180079855e+01 0 0 0
467 1 4 -2.4062799445531668e-01 1.6471782954744070e+00 1.2487048291087513e+01 7.2072694917242286e+00 0 0 0
469 1 4 -2.6046968374815316e-01 2.2187763451390481e+00 1.8329099065355933e+01 1.2706897851242452e+01 0 0 0
474 1 4 -2.9163044077517880e-01 3.8882210430597444e+00 1.9367085653495899e+01 1.1574745368039503e+00 0 0 0
478 1 4 -3.2037801748132338e-01 3.5456213836194710e+00 7.4077479111143010e+00 1.3139431356838096e+00 0 0 0
490 1 4 -2.8762967078283264e-01 4.2886758924833124e-01 1.5127938955425600e+01 1.7863479562654359e+00 0 0 0
491 1 4 -2.5315248059442463e-01 3.9905638740557174e+00 1.3988063374880408e+01 8.9896381390019044e+00 0 0 0
492 1 4 -2.9349812040961887e-01 3.3949948839879527e+00 2.1989624914027758e+01 2.0245149373184805e+00 0 0 0
495 1 4 -2.4918151574643962e-01 4.3351986555506095e+00 1.1778549371152658e+00 8.4292852052142209e+00 0 0 0
496 1 4 -2.8815987790168557e-01 3.8329264269475622e+00 9.4631883408007056e+00 2.9608670719675305e+00 0 0 0
506 1 4 -2.9519388569774357e-01 8.9603740740187443e-01 1.5746689304360002e+01 3.8709850093198463e+00 0 0 0
507 1 4 -2.0944939089413714e-01 4.5606600832640609e+00 1.3579184356377539e+01 6.8261850971037594e+00 0 0 0
508 1 4 -2.6186345915340947e-01 4.0974768835640303e+00 2.1553085756344075e+01 4.1413002169032875e+00 0 0 0
510 1 4 -2.7134128230695359e-01 1.0721993353816410e+00 2.7975970292164405e+00 3.7010972871727672e+00 0 0 0
511 1 4 -2.2094260966463097e-01 4.9687495406931879e+00 1.2231316641091354e+00 6.2610037889664145e+00 0 0 0
512 1 4 -2.3801519628417198e-01 3.8999027533732717e+00 7.7304228196973908e+00 4.3592403375130466e+00 0 0 0
513 1 4 -3.3763144689637259e-01 5.6513091807891254e+00 1.2047340015861902e+01 1.0417686961320744e+01 0 0 0
517 1 4 -3.0081536429829808e-01 5.6780525622011133e+00 2.4489221906902138e+01 1.0394175093726336e+01 0 0 0
522 1 4 -2.8396921595969793e-01 5.4349075772555970e+00 1.2261020456083754e+01 2.5786461420735161e+00 0 0 0
524 1 4 -2.6913506628389616e-01 1.6166560490231117e+01 1.8364293395842417e+01 3.5035526561947399e+00 -1 0 0
526 1 4 -2.4540538490464742e-01 3.1843337414739881e+00 2.4476114079574435e-01 3.1236326095716000e+00 0 0 0
528 1 4 -2.9511137007992144e-01 1.6129815385817352e+01 5.7754429099651201e+00 3.7373677445720155e+00 -1 0 0
529 1 4 -2.6296435765669435e-01 7.0381480769959452e+00 1.0679631117246064e+01 9.3207192438346347e+00 0 0 0
533 1 4 -2.7895241387438702e-01 7.2297989984111659e+00 2.3033669999692677e+01 9.7000718190919528e+00 0 0 0
538 1 4 -2.4714204051568628e-01 3.3867687622962324e+00 1.2429846768196237e+01 3.4880693172008290e+00 0 0 0
539 1 4 -2.6817805981610754e-01 4.7631574131005507e+00 1.6712872364907746e+01 1.0522814714210558e+01 0 0 0
540 1 4 -2.6151615262523509e-01 1.3270786466086641e+00 1.9017737731377316e+01 3.2398220349015561e+00 0 0 0
542 1 4 -2.5417984891077389e-01 5.2876635413625053e+00 2.4578588657334834e+01 2.4190999892940823e+00 0 -1 0
543 1 4 -2.6755238465549014e-01 4.8811634398053689e+00 4.1460320703065960e+00 9.7525272985934350e+00 0 0 0
544 1 4 -2.6551791064512836e-01 1.3581677096783453e+00 6.1489202531128972e+00 3.1897147183197303e+00 0 0 0
545 1 4 -2.1515408027929175e-01 2.8103809471323893e+00 1.2538147329414768e+01 1.1979908567537866e+01 0 0 0
547 1 4 -2.2359187038545333e-01 5.7865872930131290e-02 1.8933681487713123e+01 7.9829698490773042e+00 0 0 0
549 1 4 -2.4834052798779496e-01 2.5275756454717486e+00 1.4524267443347602e-01 1.1831760185954405e+01 0 1 0
551 1 4 -2.2944176744336114e-01 6.4088164733252162e-01 6.5628013114298609e+00 8.0092939534439545e+00 0 0 0
554 1 4 -2.0301884455775387e-01 6.8388329450310099e+00 1.3484159443439944e+01 1.9104698752265503e-01 0 0 0
558 1 4 -1.8841499943618265e-01 6.8158980023558584e+00 8.7054621525067510e-01 -1.9795784187580856e-01 0 0 0
561 1 4 -2.0643969675797824e-01 3.8559211144929590e+00 1.1611905755708873e+01 3.5857710876566606e-01 0 0 1
563 1 4 -2.3637982360258014e-01 7.1332661914374285e-01 1.7769205377438219e+01 6.1314065066310137e+00 0 0 0
565 1 4 -2.0197408497304931e-01 4.0418483131957634e+00 2.4416894766742303e+01 2.8941782984757369e-01 0 0 1
570 1 4 -2.5911924421153576e-01 4.6970780635963614e+00 1.4509758519960879e+01 1.2300591263625872e+01 0 0 -1
574 1 4 -2.8243522367707941e-01 5.1776465709029598e+00 2.2571298571441178e+00 1.2008766811507474e+01 0 0 -1
7 1 1 4.9438038479347399e-02 2.1086232322348580e-01 3.0610672328038984e+00 7.0929564210247422e+00 0 0 0
103 1 2 2.7558275274878768e-01 4.3243758345535993e-01 3.2440495301240735e+00 6.0067539507925005e+00 0 0 0
359 1 3 -1.2978121293542838e-01 1.6608139536048164e+01 4.3632624508083637e+00 7.6746395495308883e+00 -1 0 0
44 1 1 5.7168436640794622e-02 3.4077365013430716e-01 2.3020379841652968e+01 2.2543456771631729e+00 0 0 0
364 1 3 -1.1839828842834463e-01 1.6472321325013336e+01 2.1101021016442701e+01 5.2569707905296053e+00 0 0 0
4 1 1 4.3140085742247675e-02 8.5506079754477291e+00 2.2514446331095172e+01 5.3296077775646085e+00 0 0 0
8 1 1 4.7143712057750517e-02 8.2928492571334509e+00 1.0038570192055408e+01 5.4971980628570289e+00 0 0 0
11 1 1 3.4782102296150058e-02 8.4812278087657074e+00 1.5265301220212773e+01 7.3033660028078256e+00 0 0 0
20 1 1 5.2226023600655598e-02 6.7933751822523920e+00 2.2468362928779158e+01 3.5626682610078189e+00 0 0 0
24 1 1 5.6344314564006029e-02 6.7965061445050461e+00 1.0183344019566489e+01 3.5279939993914051e+00 0 0 0
36 1 1 4.6699964031137575e-02 8.8855049960594332e+00 2.2966172736414102e+01 2.2999934405009550e+00 0 0 0
43 1 1 6.1178975073374983e-02 7.7350307226097623e+00 1.3643438445307767e+01 9.8183454984042449e+00 0 0 0
47 1 1 5.4942670208967828e-02 7.8767583000399961e+00 1.2466663668236166e+00 9.5195593217872627e+00 0 0 0
59 1 1 5.4148310228295082e-02 7.3640850689023223e+00 1.4223096974509076e+01 7.4741523849497886e+00 0 0 0
63 1 1 5.1319046721753296e-02 7.6801493842980326e+00 1.8106404218011234e+00 7.1717200834347343e+00 0 0 0
75 1 1 4.1655507433231702e-02 6.6272667070870224e+00 1.4708710429484297e+01 9.7257052154485173e+00 0 0 0
79 1 1 5.4285211100627631e-02 6.8169832738644622e+00 2.2934165314579769e+00 9.3857088216397031e+00 0 0 0
84 1 1 4.8125208358075544e-02 7.3414668378529768e+00 2.1082056162361326e+01 3.7964421501287955e+00 0 0 0
88 1 1 5.5800432647071560e-02 7.2077765237540996e+00 8.7214498411151276e+00 3.7149815160260733e+00 0 0 0
100 1 2 2.3364346087190421e-01 8.7321380867282699e+00 2.2702703648108162e+01 6.4396594717717885e+00 0 0 0
104 1 2 2.5753120910085081e-01 8.3088763486684201e+00 1.0114429735447173e+01 6.6214391386751705e+00 0 0 0
107 1 2 2.7852419123683153e-01 8.7822712758924553e+00 1.5497300868223167e+01 6.2643361857261644e+00 0 0 0
139 1 2 2.8265733919511782e-01 7.3836910439014920e+00 1.2882527543807795e+01 1.0588508202074049e+01 0 0 0
143 1 2 2.8118492579521637e-01 7.6911555336368034e+00 3.7714567003214994e-01 1.0274893233675041e+01 0 1 0
155 1 2 2.6702493077049971e-01 7.0759265737121986e+00 1.3846680878632661e+01 6.5008628001566207e+00 0 0 0
159 1 2 2.5341877738496099e-01 7.5754787517198618e+00 1.3144128663539141e+00 6.1602240683121270e+00 0 0 0
171 1 2 2.8252120548747128e-01 5.6842613940742401e+00 1.4439244657062886e+01 1.0311969245360675e+01 0 0 0
175 1 2 2.8300123649859027e-01 5.8584552067551581e+00 2.0151846422331241e+00 9.9562538713990953e+00 0 0 0
180 1 2 2.7876562555573187e-01 6.4810407591519930e+00 2.0338703542764087e+01 3.9486198036974764e+00 0 0 0
184 1 2 2.7531373351337868e-01 6.2976834914545172e+00 8.0570788176493551e+00 3.6677273543294131e+00 0 0 0
196 1 3 -1.4483822831461873e-01 7.3999944058379601e+00 2.3359773325634031e+01 4.9112381256260713e+00 0 0 0
200 1 3 -1.4443533140145490e-01 7.1612833622283194e+00 1.0905645969298392e+01 5.0377465255318556e+00 0 0 0
228 1 3 -1.0296604757554391e-01 7.3222394727532807e+00 2.3095868891731776e+01 2.3277033040965156e+00 0 0 0
232 1 3 -1.1892380650783897e-01 7.4719899342441884e+00 1.0881421031577744e+01 2.4214437531081368e+00 0 0 0
244 1 3 3.2007908403305246e-01 6.6767199761022216e+00 2.2453472192716724e+01 1.0562141404628949e+00 0 0 0
248 1 3 3.3287508221619522e-01 6.9172862658327228e+00 1.0408468456296408e+01 1.0576090042775277e+00 0 0 0
267 1 3 -1.2776134840191553e-01 7.7669432662460380e+00 1.3043709837433081e+01 8.4120420645942140e+00 0 0 0
271 1 3 -1.4204035412421059e-01 8.0762927198256342e+00 6.0999253572642864e-01 8.1926897051081156e+00 0 1 0
276 1 3 3.4260746013294263e-01 8.8717138918787768e+00 2.2498174816293970e-01 3.7326850775616425e+00 0 0 0
280 1 3 3.4434949962890243e-01 8.9725107154433452e+00 1.2766949318664834e+01 4.1666787912034229e+00 0 0 0
299 1 3 -1.0902795512690107e-01 6.1345956515939450e+00 1.4793378107307516e+01 8.2173943159332197e+00 0 0 0
303 1 3 -9.9783364018002807e-02 6.3991196563685735e+00 2.3421787689652671e+00 7.8011639256120899e+00 0 0 0
305 1 3 3.2787552408428294e-01 6.9926274959301944e+00 7.6502196817984354e+00 1.1596551592865627e+01 0 0 0
309 1 3 3.5285187097677290e-01 6.9710704198610660e+00 2.0247646816498332e+01 1.2085583665275664e+01 0 0 0
331 1 3 -1.5101501472446971e-01 7.0770766768860405e+00 1.6089913561981014e+01 1.0201284004167960e+01 0 0 0
335 1 3 -1.6097860135494976e-01 7.2181168893982592e+00 3.6311119799570442e+00 9.9554676414295677e+00 0 0 0
347 1 3 3.6185594883929556e-01 5.9089688795716295e+00 1.7075789707396147e+01 1.0114998039270969e+01 0 0 0
351 1 3 3.6739978034047116e-01 6.0660250619762257e+00 4.6410685797117717e+00 9.7907667979209236e+00 0 0 0
356 1 3 -1.3491830794735937e-01 8.0977709147028794e+00 2.1046294454483082e+01 5.1866450309770293e+00 0 0 0
360 1 3 -1.3972275597275760e-01 7.8505244563707608e+00 8.6080021726991944e+00 5.1408252583816756e+00 0 0 0
363 1 3 -1.1385750774608627e-01 8.0612255151529641e+00 1.6692117852488003e+01 7.8588392452509046e+00 0 0 0
372 1 3 3.1853103067818578e-01 7.1274719054372797e+00 2.0578307880887003e+01 6.2807089627652042e+00 0 0 0
376 1 3 3.2771045605026611e-01 6.8840591026498972e+00 8.0945395779358265e+00 6.2455064222834418e+00 0 0 0
394 1 4 -2.3535721536828116e-01 7.9332816663789272e+00 1.6835500346468038e+01 6.0098884356342130e-01 0 0 0
398 1 4 -2.3548353880374850e-01 8.1070101522753006e+00 4.5970053500601482e+00 1.0163606703399047e-01 0 0 0
404 1 4 -2.6620585593192425e-01 6.5200968021727332e+00 2.3935182105319079e+01 7.1678439836732482e+00 0 0 0
420 1 4 -2.3832347074131627e-01 7.0814014459272929e+00 2.2818982035042019e+01 -9.0644071076897537e-02 0 -1 0
424 1 4 -2.0584003451759561e-01 7.4403969888151460e+00 1.0776121944960620e+01 -5.8750938958210930e-02 0 0 0
442 1 4 -3.8049455691845868e-01 6.9600873267777672e+00 1.5319204556598132e+01 5.1386392007884316e+00 0 0 0
452 1 4 -2.8926981926687495e-01 7.6569483560951346e+00 4.0437347512011651e-01 3.3624115397831305e+00 0 0 0
456 1 4 -2.9862666927961884e-01 7.7779583139151853e+00 1.3040586777313521e+01 3.8091337719076774e+00 0 0 0