ITEM: TIMESTEP
0
ITEM: NUMBER OF ATOMS
672
ITEM: BOX BOUNDS xy xz yz pp pp pp
0.0000000000000000e+00 2.9982000351000000e+01 0.0000000000000000e+00
0.0000000000000000e+00 1.2154000282300000e+01 0.0000000000000000e+00
0.0000000000000000e+00 2.0017000198400002e+01 0.0000000000000000e+00
ITEM: ATOMS id type xs ys zs
1 1 0.142632 0.0712383 0.155281
2 1 0.642632 0.0712384 0.155281
3 1 0.357368 0.928762 0.655281
4 1 0.857369 0.928762 0.655281
5 1 0.392631 0.928762 0.155281
6 1 0.892631 0.928762 0.155281
7 1 0.107368 0.0712382 0.655281
8 1 0.607368 0.0712383 0.655281
9 1 0.142631 0.571237 0.155281
10 1 0.642631 0.571237 0.155281
11 1 0.357369 0.428763 0.655281
12 1 0.857369 0.428763 0.655281
13 1 0.392631 0.428762 0.155281
14 1 0.892631 0.428763 0.155281
15 1 0.107369 0.571237 0.655281
16 1 0.607369 0.571237 0.655281
17 1 0.188741 0.0459188 0.151697
18 1 0.688741 0.0459186 0.151697
19 1 0.311259 0.954081 0.651697
20 1 0.811259 0.954081 0.651697
21 1 0.438741 0.954081 0.151697
22 1 0.938741 0.954081 0.151697
23 1 0.0612594 0.0459189 0.651697
24 1 0.561259 0.0459188 0.651697
25 1 0.188741 0.545919 0.151697
26 1 0.688741 0.545919 0.151697
27 1 0.311259 0.454081 0.651697
28 1 0.811259 0.454081 0.651697
29 1 0.438741 0.454081 0.151697
30 1 0.938741 0.454081 0.151697
31 1 0.0612593 0.545919 0.651697
32 1 0.561259 0.545919 0.651697
33 1 0.21436 0.114973 0.110394
34 1 0.71436 0.114974 0.110394
35 1 0.28564 0.885026 0.610394
36 1 0.78564 0.885026 0.610394
37 1 0.46436 0.885026 0.110394
38 1 0.96436 0.885026 0.110394
39 1 0.03564 0.114973 0.610394
40 1 0.53564 0.114974 0.610394
41 1 0.21436 0.614974 0.110394
42 1 0.71436 0.614974 0.110394
43 1 0.28564 0.385026 0.610394
44 1 0.78564 0.385026 0.610394
45 1 0.46436 0.385026 0.110394
46 1 0.96436 0.385026 0.110394
47 1 0.0356399 0.614974 0.610394
48 1 0.53564 0.614974 0.610394
49 1 0.194887 0.201679 0.0732545
50 1 0.694887 0.201679 0.0732545
51 1 0.305113 0.79832 0.573254
52 1 0.805113 0.79832 0.573254
53 1 0.444887 0.79832 0.0732544
54 1 0.944887 0.79832 0.0732544
55 1 0.0551128 0.201679 0.573255
56 1 0.555113 0.201679 0.573255
57 1 0.194887 0.701679 0.0732547
58 1 0.694887 0.701679 0.0732548
59 1 0.305113 0.298321 0.573255
60 1 0.805113 0.298321 0.573255
61 1 0.444887 0.298321 0.0732547
62 1 0.944887 0.298321 0.0732548
63 1 0.0551129 0.701679 0.573255
64 1 0.555113 0.701679 0.573255
65 1 0.148428 0.220833 0.0782982
66 1 0.648428 0.220833 0.0782982
67 1 0.351572 0.779167 0.578298
68 1 0.851572 0.779167 0.578298
69 1 0.398428 0.779167 0.0782981
70 1 0.898428 0.779167 0.0782981
71 1 0.101572 0.220833 0.578298
72 1 0.601572 0.220833 0.578298
73 1 0.148429 0.720833 0.0782981
74 1 0.648429 0.720833 0.078298
75 1 0.351571 0.279167 0.578298
76 1 0.851571 0.279167 0.578298
77 1 0.398429 0.279167 0.078298
78 1 0.898429 0.279167 0.078298
79 1 0.101571 0.720833 0.578298
80 1 0.601571 0.720833 0.578298
81 1 0.120429 0.155605 0.118893
82 1 0.620429 0.155605 0.118893
83 1 0.379571 0.844395 0.618893
84 1 0.879571 0.844395 0.618893
85 1 0.370429 0.844395 0.118893
86 1 0.870429 0.844395 0.118893
87 1 0.129571 0.155605 0.618893
88 1 0.629571 0.155605 0.618893
89 1 0.120427 0.655606 0.118893
90 1 0.620427 0.655606 0.118893
91 1 0.379573 0.344395 0.618893
92 1 0.879573 0.344394 0.618893
93 1 0.370428 0.344394 0.118893
94 1 0.870427 0.344394 0.118893
95 1 0.129573 0.655605 0.618893
96 1 0.629573 0.655606 0.618893
97 1 0.116114 0.99918 0.205622
98 1 0.616114 0.99918 0.205622
99 1 0.383886 0.000819625 0.705622
100 1 0.883886 0.000819744 0.705622
101 1 0.366114 0.000819874 0.205622
102 1 0.866114 0.000819866 0.205622
103 1 0.133886 0.999181 0.705622
104 1 0.633886 0.999181 0.705622
105 1 0.116114 0.49918 0.205622
106 1 0.616114 0.49918 0.205622
107 1 0.383886 0.50082 0.705622
108 1 0.883886 0.50082 0.705622
109 1 0.366114 0.50082 0.205622
110 1 0.866114 0.50082 0.205622
111 1 0.133886 0.49918 0.705622
112 1 0.633886 0.49918 0.705622
113 1 0.264181 0.183077 0.844732
114 1 0.764181 0.183077 0.844732
115 1 0.235819 0.816923 0.344732
116 1 0.735819 0.816922 0.344732
117 1 0.0141809 0.816922 0.844732
118 1 0.514181 0.816922 0.844732
119 1 0.485819 0.183077 0.344732
120 1 0.985819 0.183077 0.344732
121 1 0.264181 0.683077 0.844732
122 1 0.764181 0.683078 0.844732
123 1 0.235819 0.316922 0.344732
124 1 0.735819 0.316922 0.344732
125 1 0.0141809 0.316922 0.844732
126 1 0.514181 0.316922 0.844732
127 1 0.485819 0.683077 0.344732
128 1 0.985819 0.683077 0.344732
129 1 0.310917 0.202847 0.848008
130 1 0.810918 0.202847 0.848008
131 1 0.189082 0.797153 0.348008
132 1 0.689082 0.797153 0.348008
133 1 0.0609176 0.797153 0.848008
134 1 0.560918 0.797153 0.848008
135 1 0.439082 0.202847 0.348008
136 1 0.939082 0.202847 0.348008
137 1 0.310918 0.702847 0.848008
138 1 0.810918 0.702847 0.848008
139 1 0.189082 0.297153 0.348008
140 1 0.689082 0.297153 0.348008
141 1 0.0609176 0.297153 0.848008
142 1 0.560918 0.297153 0.848008
143 1 0.439082 0.702847 0.348008
144 1 0.939082 0.702847 0.348008
145 1 0.336048 0.132237 0.889636
146 1 0.836048 0.132237 0.889636
147 1 0.163952 0.867763 0.389636
148 1 0.663952 0.867763 0.389636
149 1 0.0860479 0.867763 0.889636
150 1 0.586048 0.867763 0.889636
151 1 0.413952 0.132237 0.389636
152 1 0.913952 0.132237 0.389636
153 1 0.336048 0.632237 0.889636
154 1 0.836048 0.632237 0.889636
155 1 0.163952 0.367763 0.389636
156 1 0.663952 0.367763 0.389636
157 1 0.0860479 0.367763 0.889636
158 1 0.586048 0.367763 0.889636
159 1 0.413952 0.632237 0.389636
160 1 0.913952 0.632237 0.389636
161 1 0.316834 0.043013 0.924734
162 1 0.816835 0.0430129 0.924734
163 1 0.183165 0.956987 0.424734
164 1 0.683165 0.956987 0.424734
165 1 0.0668345 0.956987 0.924734
166 1 0.566835 0.956987 0.924734
167 1 0.433166 0.043013 0.424734
168 1 0.933166 0.0430129 0.424734
169 1 0.316834 0.543013 0.924734
170 1 0.816835 0.543013 0.924734
171 1 0.183165 0.456987 0.424734
172 1 0.683165 0.456987 0.424734
173 1 0.0668346 0.456987 0.924734
174 1 0.566835 0.456987 0.924734
175 1 0.433165 0.543013 0.424734
176 1 0.933165 0.543013 0.424734
177 1 0.27042 0.0244303 0.918716
178 1 0.77042 0.0244301 0.918716
179 1 0.22958 0.97557 0.418716
180 1 0.72958 0.97557 0.418716
181 1 0.0204199 0.97557 0.918716
182 1 0.52042 0.97557 0.918716
183 1 0.47958 0.0244302 0.418716
184 1 0.97958 0.0244302 0.418716
185 1 0.27042 0.52443 0.918716
186 1 0.77042 0.52443 0.918716
187 1 0.22958 0.47557 0.418716
188 1 0.72958 0.47557 0.418716
189 1 0.0204199 0.47557 0.918716
190 1 0.52042 0.47557 0.918716
191 1 0.47958 0.52443 0.418716
192 1 0.97958 0.52443 0.418716
193 1 0.243155 0.0963556 0.880859
194 1 0.743155 0.0963557 0.880859
195 1 0.256845 0.903644 0.380859
196 1 0.756845 0.903644 0.380859
197 1 0.493155 0.903644 0.880859
198 1 0.993155 0.903644 0.880859
199 1 0.00684533 0.0963556 0.380859
200 1 0.506845 0.0963557 0.380859
201 1 0.243155 0.596356 0.880859
202 1 0.743155 0.596356 0.880859
203 1 0.256845 0.403644 0.380859
204 1 0.756845 0.403644 0.380859
205 1 0.493155 0.403644 0.880859
206 1 0.993155 0.403644 0.880859
207 1 0.00684528 0.596356 0.380859
208 1 0.506845 0.596356 0.380859
209 1 0.231547 0.250139 0.799514
210 1 0.731547 0.25014 0.799514
211 1 0.268453 0.74986 0.299514
212 1 0.768453 0.74986 0.299514
213 1 0.481547 0.74986 0.799514
214 1 0.981547 0.74986 0.799514
215 1 0.018453 0.25014 0.299514
216 1 0.518453 0.25014 0.299514
217 1 0.231547 0.75014 0.799514
218 1 0.731547 0.75014 0.799514
219 1 0.268453 0.24986 0.299514
220 1 0.768453 0.24986 0.299514
221 1 0.481547 0.24986 0.799514
222 1 0.981547 0.24986 0.799514
223 1 0.018453 0.75014 0.299514
224 1 0.518453 0.75014 0.299514
225 2 0.211875 0.956088 0.194022
226 2 0.711875 0.956087 0.194022
227 2 0.288125 0.0439125 0.694022
228 2 0.788125 0.0439125 0.694022
229 2 0.461875 0.0439127 0.194022
230 2 0.961875 0.0439126 0.194022
231 2 0.0381252 0.956088 0.694022
232 2 0.538125 0.956088 0.694022
233 2 0.211875 0.456088 0.194021
234 2 0.711875 0.456088 0.194021
235 2 0.288125 0.543912 0.694021
236 2 0.788125 0.543912 0.694021
237 2 0.461875 0.543912 0.194021
238 2 0.961875 0.543912 0.194021
239 2 0.0381251 0.456088 0.694021
240 2 0.538125 0.456088 0.694021
241 2 0.223481 0.273187 0.0265132
242 2 0.723481 0.273187 0.0265132
243 2 0.276519 0.726813 0.526513
244 2 0.776519 0.726813 0.526513
245 2 0.473481 0.726813 0.0265131
246 2 0.973481 0.726813 0.0265132
247 2 0.0265193 0.273187 0.526513
248 2 0.526519 0.273187 0.526513
249 2 0.223481 0.773187 0.0265136
250 2 0.723481 0.773187 0.0265136
251 2 0.276519 0.226813 0.526514
252 2 0.776519 0.226813 0.526514
253 2 0.473481 0.226813 0.0265136
254 2 0.973481 0.226813 0.0265136
255 2 0.0265193 0.773187 0.526514
256 2 0.526519 0.773187 0.526514
257 2 0.0697043 0.176209 0.121764
258 2 0.569704 0.176209 0.121764
259 2 0.430296 0.823791 0.621764
260 2 0.930296 0.823791 0.621764
261 2 0.319704 0.823791 0.121764
262 2 0.819704 0.823791 0.121764
263 2 0.180296 0.176209 0.621764
264 2 0.680296 0.176209 0.621764
265 2 0.0697032 0.676209 0.121764
266 2 0.569703 0.676209 0.121764
267 2 0.430297 0.323791 0.621764
268 2 0.930297 0.323791 0.621764
269 2 0.319703 0.323791 0.121764
270 2 0.819703 0.323791 0.121764
271 2 0.180297 0.676209 0.621764
272 2 0.680297 0.676209 0.621764
273 2 0.335404 0.290982 0.806647
274 2 0.835404 0.290982 0.806647
275 2 0.164596 0.709018 0.306647
276 2 0.664596 0.709018 0.306647
277 2 0.0854037 0.709018 0.806647
278 2 0.585404 0.709018 0.806647
279 2 0.414596 0.290982 0.306647
280 2 0.914596 0.290982 0.306647
281 2 0.335404 0.790982 0.806647
282 2 0.835404 0.790982 0.806647
283 2 0.164596 0.209018 0.306647
284 2 0.664596 0.209018 0.306647
285 2 0.0854037 0.209018 0.806647
286 2 0.585404 0.209018 0.806647
287 2 0.414596 0.790982 0.306647
288 2 0.914596 0.790982 0.306647
289 2 0.345705 0.967862 0.96932
290 2 0.845706 0.967862 0.96932
291 2 0.154294 0.0321384 0.46932
292 2 0.654294 0.0321385 0.46932
293 2 0.0957056 0.0321384 0.96932
294 2 0.595706 0.0321385 0.96932
295 2 0.404294 0.967862 0.46932
296 2 0.904294 0.967862 0.46932
297 2 0.345706 0.467862 0.96932
298 2 0.845706 0.467861 0.96932
299 2 0.154294 0.532138 0.46932
300 2 0.654294 0.532139 0.46932
301 2 0.0957056 0.532138 0.96932
302 2 0.595706 0.532139 0.96932
303 2 0.404294 0.467862 0.46932
304 2 0.904294 0.467862 0.46932
305 2 0.192301 0.0769059 0.879962
306 2 0.6923 0.0769057 0.879962
307 2 0.3077 0.923094 0.379962
308 2 0.8077 0.923094 0.379962
309 2 0.4423 0.923094 0.879962
310 2 0.9423 0.923094 0.879962
311 2 0.0576994 0.0769058 0.379962
312 2 0.557699 0.0769058 0.379962
313 2 0.192301 0.576906 0.879962
314 2 0.6923 0.576906 0.879962
315 2 0.3077 0.423094 0.379962
316 2 0.8077 0.423094 0.379962
317 2 0.4423 0.423094 0.879962
318 2 0.9423 0.423094 0.879962
319 2 0.0576995 0.576906 0.379962
320 2 0.5577 0.576906 0.379962
321 3 0.193722 0.861525 0.195147
322 3 0.693722 0.861525 0.195147
323 3 0.306278 0.138475 0.695147
324 3 0.806278 0.138475 0.695147
325 3 0.443722 0.138475 0.195147
326 3 0.943722 0.138475 0.195147
327 3 0.0562777 0.861525 0.695147
328 3 0.556278 0.861525 0.695147
329 3 0.193722 0.361525 0.195147
330 3 0.693722 0.361525 0.195147
331 3 0.306278 0.638475 0.695147
332 3 0.806278 0.638475 0.695147
333 3 0.443722 0.638475 0.195147
334 3 0.943722 0.638475 0.195147
335 3 0.0562777 0.361525 0.695147
336 3 0.556278 0.361525 0.695147
337 3 0.248085 0.983518 0.222815
338 3 0.748085 0.983518 0.222815
339 3 0.251915 0.0164821 0.722815
340 3 0.751915 0.016482 0.722815
341 3 0.498085 0.0164821 0.222815
342 3 0.998085 0.0164821 0.222815
343 3 0.00191509 0.983518 0.722815
344 3 0.501915 0.983518 0.722815
345 3 0.248085 0.483519 0.222815
346 3 0.748085 0.483518 0.222815
347 3 0.251915 0.516482 0.722815
348 3 0.751915 0.516482 0.722815
349 3 0.498085 0.516482 0.222815
350 3 0.998085 0.516482 0.222815
351 3 0.0019147 0.483518 0.722815
352 3 0.501915 0.483518 0.722815
353 3 0.259782 0.231354 0.0050377
354 3 0.759782 0.231354 0.00503766
355 3 0.240218 0.768646 0.505038
356 3 0.740218 0.768646 0.505038
357 3 0.00978159 0.768646 0.00503772
358 3 0.509782 0.768646 0.00503771
359 3 0.490218 0.231354 0.505038
360 3 0.990218 0.231354 0.505038
361 3 0.259782 0.731353 0.0050377
362 3 0.759782 0.731353 0.00503766
363 3 0.240218 0.268647 0.505038
364 3 0.740218 0.268647 0.505038
365 3 0.00978215 0.268647 0.00503765
366 3 0.509782 0.268647 0.00503765
367 3 0.490218 0.731353 0.505038
368 3 0.990218 0.731353 0.505038
369 3 0.208772 0.368627 0.0116258
370 3 0.708772 0.368627 0.0116258
371 3 0.291228 0.631373 0.511626
372 3 0.791228 0.631373 0.511626
373 3 0.458772 0.631373 0.0116259
374 3 0.958772 0.631373 0.0116258
375 3 0.0412282 0.368627 0.511626
376 3 0.541228 0.368627 0.511626
377 3 0.208772 0.868628 0.0116257
378 3 0.708772 0.868628 0.0116257
379 3 0.291228 0.131372 0.511626
380 3 0.791228 0.131372 0.511626
381 3 0.458772 0.131372 0.0116257
382 3 0.958772 0.131372 0.0116257
383 3 0.0412282 0.868628 0.511626
384 3 0.541228 0.868628 0.511626
385 3 0.0573208 0.273889 0.135682
386 3 0.557321 0.27389 0.135683
387 3 0.442679 0.72611 0.635682
388 3 0.942679 0.72611 0.635682
389 3 0.307321 0.726109 0.135683
390 3 0.807321 0.72611 0.135683
391 3 0.192679 0.273889 0.635682
392 3 0.692679 0.27389 0.635682
393 3 0.0573211 0.773884 0.135682
394 3 0.557321 0.773884 0.135682
395 3 0.442679 0.226116 0.635682
396 3 0.942679 0.226116 0.635682
397 3 0.307321 0.226115 0.135682
398 3 0.807321 0.226115 0.135682
399 3 0.192679 0.773883 0.635682
400 3 0.692679 0.773884 0.635682
401 3 0.0445303 0.0934533 0.111494
402 3 0.54453 0.0934526 0.111494
403 3 0.45547 0.906547 0.611494
404 3 0.95547 0.906547 0.611494
405 3 0.29453 0.906548 0.111494
406 3 0.79453 0.906547 0.111494
407 3 0.20547 0.0934534 0.611494
408 3 0.70547 0.0934529 0.611494
409 3 0.0445315 0.593459 0.111495
410 3 0.544531 0.593458 0.111495
411 3 0.455469 0.406542 0.611495
412 3 0.955469 0.406542 0.611495
413 3 0.294531 0.406542 0.111495
414 3 0.794531 0.406542 0.111495
415 3 0.205468 0.593459 0.611495
416 3 0.705469 0.593458 0.611495
417 3 0.317262 0.385417 0.803649
418 3 0.817262 0.385418 0.803649
419 3 0.182738 0.614582 0.303649
420 3 0.682738 0.614582 0.303649
421 3 0.0672621 0.614582 0.803649
422 3 0.567262 0.614582 0.803649
423 3 0.432738 0.385418 0.303649
424 3 0.932738 0.385418 0.303649
425 3 0.317262 0.885418 0.803649
426 3 0.817262 0.885418 0.803649
427 3 0.182738 0.114582 0.303649
428 3 0.682738 0.114582 0.303649
429 3 0.0672621 0.114582 0.803649
430 3 0.567262 0.114582 0.803649
431 3 0.432738 0.885418 0.303649
432 3 0.932738 0.885418 0.303649
433 3 0.372354 0.263737 0.779862
434 3 0.872354 0.263737 0.779862
435 3 0.127646 0.736263 0.279862
436 3 0.627646 0.736263 0.279862
437 3 0.122354 0.736263 0.779862
438 3 0.622354 0.736263 0.779862
439 3 0.377646 0.263737 0.279862
440 3 0.877646 0.263737 0.279862
441 3 0.372354 0.763737 0.779862
442 3 0.872354 0.763737 0.779862
443 3 0.127646 0.236263 0.279862
444 3 0.627646 0.236263 0.279862
445 3 0.122354 0.236263 0.779862
446 3 0.622354 0.236263 0.779862
447 3 0.377646 0.763737 0.279862
448 3 0.877646 0.763737 0.279862
449 3 0.378793 0.0128283 0.998396
450 3 0.878793 0.0128284 0.998396
451 3 0.121207 0.987172 0.498396
452 3 0.621207 0.987172 0.498396
453 3 0.128793 0.987172 0.998396
454 3 0.628793 0.987172 0.998396
455 3 0.371207 0.0128284 0.498396
456 3 0.871207 0.0128283 0.498396
457 3 0.378793 0.512828 0.998396
458 3 0.878793 0.512828 0.998396
459 3 0.121207 0.487172 0.498396
460 3 0.621207 0.487172 0.498396
461 3 0.128793 0.487172 0.998396
462 3 0.628793 0.487172 0.998396
463 3 0.371207 0.512828 0.498396
464 3 0.871207 0.512828 0.498396
465 3 0.334095 0.867321 0.973677
466 3 0.834095 0.867321 0.973677
467 3 0.165905 0.132679 0.473677
468 3 0.665905 0.132679 0.473677
469 3 0.0840954 0.132679 0.973677
470 3 0.584095 0.132679 0.973677
471 3 0.415905 0.867321 0.473677
472 3 0.915905 0.867321 0.473677
473 3 0.334096 0.367321 0.973677
474 3 0.834095 0.367321 0.973677
475 3 0.165905 0.632679 0.473677
476 3 0.665905 0.632679 0.473677
477 3 0.0840955 0.632679 0.973677
478 3 0.584095 0.632679 0.973677
479 3 0.415905 0.367321 0.473677
480 3 0.915904 0.367321 0.473676
481 3 0.179042 0.983724 0.858595
482 3 0.679042 0.983724 0.858595
483 3 0.320958 0.0162759 0.358595
484 3 0.820958 0.0162758 0.358595
485 3 0.429042 0.0162758 0.858595
486 3 0.929042 0.0162759 0.858595
487 3 0.0709583 0.983724 0.358595
488 3 0.570958 0.983724 0.358595
489 3 0.179042 0.483724 0.858595
490 3 0.679042 0.483724 0.858595
491 3 0.320958 0.516276 0.358595
492 3 0.820958 0.516276 0.358595
493 3 0.429042 0.516276 0.858595
494 3 0.929042 0.516276 0.858595
495 3 0.0709584 0.483724 0.358595
496 3 0.570958 0.483724 0.358595
497 3 0.168429 0.156936 0.900096
498 3 0.668429 0.156936 0.900095
499 3 0.331571 0.843064 0.400095
500 3 0.831571 0.843065 0.400095
501 3 0.418429 0.843065 0.900095
502 3 0.918429 0.843064 0.900095
503 3 0.0815708 0.156936 0.400095
504 3 0.581571 0.156936 0.400095
505 3 0.168429 0.656936 0.900096
506 3 0.668429 0.656935 0.900095
507 3 0.331571 0.343064 0.400095
508 3 0.831571 0.343065 0.400095
509 3 0.418429 0.343065 0.900095
510 3 0.918429 0.343064 0.900095
511 3 0.0815708 0.656936 0.400095
512 3 0.581571 0.656936 0.400095
513 4 0.137213 0.970141 0.246847
514 4 0.637213 0.970141 0.246847
515 4 0.362787 0.0298595 0.746847
516 4 0.862787 0.0298595 0.746847
517 4 0.387213 0.0298595 0.246847
518 4 0.887213 0.0298595 0.246847
519 4 0.112787 0.970141 0.746847
520 4 0.612787 0.970141 0.746847
521 4 0.137213 0.47014 0.246847
522 4 0.637213 0.47014 0.246847
523 4 0.362787 0.52986 0.746847
524 4 0.862787 0.52986 0.746847
525 4 0.387213 0.52986 0.246847
526 4 0.887213 0.52986 0.246847
527 4 0.112787 0.47014 0.746847
528 4 0.612787 0.47014 0.746847
529 4 0.103165 0.923603 0.182351
530 4 0.603165 0.923603 0.182351
531 4 0.396835 0.0763968 0.682351
532 4 0.896835 0.0763969 0.682351
533 4 0.353165 0.0763969 0.182351
534 4 0.853165 0.076397 0.182351
535 4 0.146835 0.923603 0.682351
536 4 0.646835 0.923603 0.682351
537 4 0.103165 0.423603 0.182351
538 4 0.603165 0.423603 0.182351
539 4 0.396835 0.576397 0.682351
540 4 0.896835 0.576397 0.682351
541 4 0.353165 0.576397 0.182351
542 4 0.853165 0.576397 0.182351
543 4 0.146835 0.423603 0.682351
544 4 0.646835 0.423603 0.682351
545 4 0.088379 0.04437 0.228648
546 4 0.588379 0.0443701 0.228648
547 4 0.411621 0.95563 0.728648
548 4 0.911621 0.95563 0.728648
549 4 0.338379 0.95563 0.228648
550 4 0.838379 0.95563 0.228648
551 4 0.161621 0.0443701 0.728648
552 4 0.661621 0.0443701 0.728648
553 4 0.0883788 0.54437 0.228648
554 4 0.588379 0.54437 0.228648
555 4 0.411621 0.45563 0.728648
556 4 0.911621 0.45563 0.728648
557 4 0.338379 0.45563 0.228648
558 4 0.838379 0.45563 0.228648
559 4 0.161621 0.54437 0.728648
560 4 0.661621 0.54437 0.728648
561 4 0.250397 0.100379 0.107537
562 4 0.750397 0.100379 0.107538
563 4 0.249603 0.899621 0.607538
564 4 0.749603 0.899621 0.607537
565 4 0.500397 0.899621 0.107537
566 4 0.000397205 0.899621 0.107537
567 4 0.999603 0.100379 0.607538
568 4 0.499603 0.100379 0.607538
569 4 0.250397 0.600379 0.107537
570 4 0.750398 0.600379 0.107537
571 4 0.249603 0.399621 0.607537
572 4 0.749602 0.399621 0.607537
573 4 0.500398 0.399621 0.107537
574 4 0.000397557 0.399621 0.107537
575 4 0.999603 0.600379 0.607537
576 4 0.499602 0.600379 0.607537
577 4 0.133554 0.288682 0.0496799
578 4 0.633554 0.288682 0.0496799
579 4 0.366446 0.711318 0.54968
580 4 0.866446 0.711318 0.54968
581 4 0.383554 0.711318 0.0496799
582 4 0.883554 0.711318 0.0496799
583 4 0.116446 0.288682 0.54968
584 4 0.616446 0.288682 0.54968
585 4 0.133554 0.788682 0.0496795
586 4 0.633554 0.788682 0.0496795
587 4 0.366446 0.211318 0.54968
588 4 0.866446 0.211318 0.54968
589 4 0.383554 0.211318 0.0496796
590 4 0.883554 0.211318 0.0496795
591 4 0.116446 0.788682 0.54968
592 4 0.616446 0.788682 0.54968
593 4 0.247913 0.283381 0.754724
594 4 0.747913 0.283381 0.754724
595 4 0.252087 0.716619 0.254724
596 4 0.752087 0.716619 0.254724
597 4 0.497913 0.716619 0.754724
598 4 0.997913 0.716619 0.754724
599 4 0.00208724 0.283381 0.254724
600 4 0.502087 0.283381 0.254724
601 4 0.247913 0.783381 0.754724
602 4 0.747913 0.783381 0.754724
603 4 0.252087 0.216619 0.254724
604 4 0.752087 0.216619 0.254724
605 4 0.497913 0.216619 0.754724
606 4 0.997913 0.216619 0.754724
607 4 0.00208725 0.783381 0.254724
608 4 0.502087 0.783381 0.254724
609 4 0.203469 0.199319 0.782019
610 4 0.703469 0.199319 0.782019
611 4 0.296531 0.800681 0.282019
612 4 0.796532 0.800681 0.282019
613 4 0.453468 0.800681 0.782019
614 4 0.953469 0.800681 0.782019
615 4 0.0465315 0.199319 0.282019
616 4 0.546531 0.199319 0.282019
617 4 0.203469 0.69932 0.782019
618 4 0.703469 0.699319 0.782019
619 4 0.296531 0.300681 0.282019
620 4 0.796531 0.300681 0.282019
621 4 0.453469 0.300681 0.782019
622 4 0.953469 0.300681 0.782019
623 4 0.0465315 0.699319 0.282019
624 4 0.546531 0.699319 0.282019
625 4 0.216009 0.319732 0.825978
626 4 0.716009 0.319732 0.825978
627 4 0.283991 0.680268 0.325978
628 4 0.783991 0.680268 0.325978
629 4 0.466009 0.680268 0.825978
630 4 0.966009 0.680268 0.825978
631 4 0.0339915 0.319732 0.325978
632 4 0.533991 0.319732 0.325978
633 4 0.216009 0.819732 0.825978
634 4 0.716009 0.819732 0.825978
635 4 0.283991 0.180268 0.325978
636 4 0.783991 0.180268 0.325978
637 4 0.466009 0.180268 0.825978
638 4 0.966009 0.180268 0.825978
639 4 0.0339914 0.819732 0.325978
640 4 0.533991 0.819732 0.325978
641 4 0.372305 0.145419 0.893691
642 4 0.872305 0.145419 0.893691
643 4 0.127695 0.854581 0.393691
644 4 0.627694 0.854581 0.393691
645 4 0.122305 0.854581 0.893691
646 4 0.622306 0.854581 0.893691
647 4 0.377695 0.145419 0.393691
648 4 0.877695 0.145419 0.393691
649 4 0.372305 0.645419 0.893691
650 4 0.872306 0.645419 0.893691
651 4 0.127695 0.354581 0.393691
652 4 0.627694 0.354581 0.393691
653 4 0.122305 0.354581 0.893691
654 4 0.622306 0.354581 0.893691
655 4 0.377695 0.645419 0.393691
656 4 0.877695 0.645419 0.393691
657 4 0.254851 0.954822 0.945311
658 4 0.754851 0.954822 0.945311
659 4 0.245149 0.0451781 0.445311
660 4 0.745149 0.0451784 0.445311
661 4 0.0048507 0.0451781 0.945311
662 4 0.504851 0.0451784 0.945311
663 4 0.495149 0.954822 0.445311
664 4 0.995149 0.954822 0.445311
665 4 0.254851 0.454822 0.945311
666 4 0.754851 0.454822 0.945311
667 4 0.245149 0.545178 0.445311
668 4 0.745149 0.545178 0.445311
669 4 0.0048507 0.545178 0.945311
670 4 0.504851 0.545178 0.945311
671 4 0.495149 0.454822 0.445311
672 4 0.995149 0.454822 0.445311
ITEM: TIMESTEP
1000
ITEM: NUMBER OF ATOMS
672
ITEM: BOX BOUNDS xy xz yz pp pp pp
-2.8977424605318908e-01 3.0242672042966770e+01 3.9075097734924701e-02
3.5761338888031030e-01 1.1535741987614838e+01 -6.8177651821392973e-02
-1.1984134689426984e+00 2.1215413667342752e+01 -2.6064490580482463e-01
ITEM: ATOMS id type xs ys zs
1 1 0.156448 0.0666586 0.17064
2 1 0.629575 0.0632925 0.169216
3 1 0.359094 0.933898 0.657387
4 1 0.853153 0.906 0.658422
5 1 0.391436 0.939694 0.156976
6 1 0.90765 0.921459 0.167385
7 1 0.101213 0.0801569 0.659266
8 1 0.602099 0.0721912 0.657856
9 1 0.15902 0.566085 0.158698
10 1 0.668258 0.550932 0.156178
11 1 0.340609 0.434731 0.657931
12 1 0.843946 0.392121 0.654331
13 1 0.397091 0.454228 0.142595
14 1 0.902713 0.445872 0.165364
15 1 0.0907027 0.562401 0.657931
16 1 0.595569 0.557085 0.656661
17 1 0.202826 0.0543716 0.165063
18 1 0.675344 0.0319003 0.166032
19 1 0.311229 0.947143 0.655743
20 1 0.807044 0.930441 0.653849
21 1 0.435434 0.969857 0.14854
22 1 0.954408 0.93032 0.162188
23 1 0.0565015 0.0540259 0.643803
24 1 0.55643 0.0478951 0.649993
25 1 0.205244 0.543784 0.151411
26 1 0.715679 0.5423 0.154134
27 1 0.293844 0.444837 0.652895
28 1 0.79846 0.424492 0.645586
29 1 0.444215 0.464639 0.142177
30 1 0.947228 0.478406 0.165699
31 1 0.044543 0.552114 0.65075
32 1 0.549406 0.544429 0.646977
33 1 0.226425 0.128766 0.124231
34 1 0.696244 0.0730065 0.113772
35 1 0.287503 0.883354 0.611727
36 1 0.788675 0.856844 0.607431
37 1 0.456411 0.899671 0.102018
38 1 0.97626 0.859947 0.116956
39 1 0.0384159 0.120438 0.59504
40 1 0.532431 0.112051 0.606952
41 1 0.226248 0.605244 0.103613
42 1 0.733333 0.614606 0.108236
43 1 0.27264 0.373603 0.610017
44 1 0.778785 0.359124 0.597407
45 1 0.465561 0.385186 0.100001
46 1 0.97269 0.432359 0.118481
47 1 0.0260356 0.623539 0.604575
48 1 0.530754 0.608989 0.597218
49 1 0.204827 0.210936 0.0867489
50 1 0.679954 0.166244 0.076543
51 1 0.309184 0.791626 0.577104
52 1 0.809941 0.774924 0.568415
53 1 0.436452 0.810048 0.0677809
54 1 0.953422 0.779978 0.0791038
55 1 0.0624072 0.206157 0.562847
56 1 0.550431 0.210618 0.575204
57 1 0.202846 0.685126 0.0645737
58 1 0.710374 0.699427 0.072147
59 1 0.295826 0.297647 0.56878
60 1 0.800983 0.268161 0.562783
61 1 0.444589 0.301358 0.0603095
62 1 0.954682 0.351361 0.0739011
63 1 0.0491523 0.709398 0.57212
64 1 0.553581 0.705005 0.570108
65 1 0.159362 0.218915 0.0960123
66 1 0.636673 0.209709 0.0879969
67 1 0.35557 0.78288 0.577119
68 1 0.855769 0.767427 0.573004
69 1 0.391457 0.786229 0.0780951
70 1 0.906921 0.784531 0.085209
71 1 0.106812 0.217139 0.579054
72 1 0.593878 0.238388 0.584452
73 1 0.157818 0.702346 0.0738257
74 1 0.664068 0.706634 0.0852886
75 1 0.342286 0.296882 0.573424
76 1 0.845912 0.24199 0.576715
77 1 0.398376 0.289198 0.0717813
78 1 0.908587 0.329538 0.0744904
79 1 0.0934798 0.730367 0.591784
80 1 0.598429 0.719719 0.586068
81 1 0.1336 0.155375 0.137313
82 1 0.610312 0.160274 0.13465
83 1 0.382478 0.847418 0.620684
84 1 0.878594 0.830524 0.619867
85 1 0.366928 0.852633 0.121471
86 1 0.880488 0.852246 0.127005
87 1 0.12802 0.166766 0.629486
88 1 0.620479 0.173904 0.628094
89 1 0.13426 0.643699 0.120689
90 1 0.642568 0.636919 0.127093
91 1 0.366028 0.362363 0.616953
92 1 0.86923 0.300242 0.625409
93 1 0.373552 0.357438 0.114858
94 1 0.881956 0.365925 0.123939
95 1 0.115909 0.660684 0.635118
96 1 0.620766 0.64912 0.630552
97 1 0.131407 0.984456 0.215675
98 1 0.601382 0.0021939 0.2177
99 1 0.385981 0.0124298 0.702991
100 1 0.88153 0.974766 0.70706
101 1 0.365684 0.995481 0.211219
102 1 0.884172 0.992072 0.216724
103 1 0.119833 0.996508 0.709408
104 1 0.623754 0.993509 0.707528
105 1 0.137582 0.49035 0.208551
106 1 0.64019 0.448652 0.186017
107 1 0.366732 0.513261 0.703668
108 1 0.871384 0.472699 0.697934
109 1 0.374138 0.545082 0.18439
110 1 0.87362 0.499531 0.217411
111 1 0.114671 0.478786 0.702358
112 1 0.615634 0.488976 0.710487
113 1 0.274282 0.152284 0.831214
114 1 0.787629 0.149971 0.828806
115 1 0.235952 0.81834 0.348419
116 1 0.712405 0.818765 0.344609
117 1 0.0270044 0.822851 0.833937
118 1 0.516854 0.841383 0.833318
119 1 0.474299 0.213255 0.327346
120 1 0.981841 0.183535 0.343141
121 1 0.272836 0.67516 0.831903
122 1 0.762311 0.669046 0.821767
123 1 0.228399 0.296705 0.355724
124 1 0.736505 0.328178 0.349186
125 1 0.0239655 0.339583 0.830193
126 1 0.523099 0.346119 0.840336
127 1 0.46636 0.675802 0.340035
128 1 0.971709 0.697095 0.355191
129 1 0.319476 0.184816 0.839733
130 1 0.832213 0.188041 0.83375
131 1 0.190483 0.794615 0.356109
132 1 0.666721 0.801275 0.355413
133 1 0.070723 0.796747 0.848103
134 1 0.561455 0.819357 0.844487
135 1 0.427734 0.210391 0.33144
136 1 0.935959 0.196568 0.354932
137 1 0.318574 0.698775 0.840598
138 1 0.809807 0.677271 0.829354
139 1 0.182249 0.286443 0.36388
140 1 0.691098 0.29061 0.352977
141 1 0.0686048 0.304538 0.840629
142 1 0.569415 0.336205 0.846507
143 1 0.419166 0.675282 0.340394
144 1 0.925574 0.701459 0.360645
145 1 0.340783 0.117994 0.886405
146 1 0.859377 0.112645 0.870265
147 1 0.168614 0.872956 0.396606
148 1 0.646364 0.858018 0.406461
149 1 0.089668 0.880118 0.889156
150 1 0.584313 0.907765 0.880901
151 1 0.409373 0.129067 0.375558
152 1 0.917987 0.123003 0.401139
153 1 0.340726 0.629968 0.884072
154 1 0.82727 0.617913 0.878845
155 1 0.163002 0.362866 0.408354
156 1 0.666838 0.351545 0.397759
157 1 0.0895407 0.349805 0.892847
158 1 0.585988 0.411712 0.891434
159 1 0.400068 0.611454 0.387387
160 1 0.906147 0.612426 0.398724
161 1 0.318301 0.0395767 0.923149
162 1 0.839933 0.0267866 0.909274
163 1 0.191005 0.959374 0.434651
164 1 0.670819 0.938416 0.442763
165 1 0.0633883 0.969828 0.919693
166 1 0.559869 0.98747 0.916841
167 1 0.436102 0.0541108 0.410701
168 1 0.942831 0.036108 0.43438
169 1 0.318424 0.555352 0.925138
170 1 0.802949 0.528429 0.909238
171 1 0.185942 0.451422 0.442893
172 1 0.687726 0.432787 0.439268
173 1 0.0671577 0.435971 0.930727
174 1 0.562964 0.48788 0.931791
175 1 0.423358 0.53315 0.428102
176 1 0.933094 0.531673 0.433003
177 1 0.273442 0.0153622 0.911763
178 1 0.793632 0.0135861 0.908498
179 1 0.237763 0.961061 0.430333
180 1 0.716362 0.953388 0.431166
181 1 0.0201884 0.987931 0.901644
182 1 0.514157 0.996954 0.909674
183 1 0.482179 0.0534237 0.399162
184 1 0.987589 0.0217229 0.419785
185 1 0.273101 0.528579 0.913112
186 1 0.758102 0.510367 0.893211
187 1 0.23131 0.462581 0.429864
188 1 0.732863 0.464221 0.436259
189 1 0.0240658 0.477441 0.915232
190 1 0.51644 0.484646 0.925198
191 1 0.469952 0.531199 0.417622
192 1 0.979502 0.523323 0.420127
193 1 0.249135 0.0732698 0.866627
194 1 0.765728 0.0670918 0.865188
195 1 0.262815 0.894339 0.386136
196 1 0.738238 0.896116 0.382214
197 1 0.490524 0.926655 0.867082
198 1 0.998982 0.916354 0.856471
199 1 0.0079089 0.0990922 0.375757
200 1 0.50214 0.134169 0.359419
201 1 0.250756 0.578014 0.863511
202 1 0.736256 0.584715 0.8523
203 1 0.252161 0.384335 0.389642
204 1 0.756799 0.420034 0.385725
205 1 0.496127 0.42849 0.874834
206 1 0.00268976 0.427336 0.865674
207 1 0.998855 0.602262 0.379142
208 1 0.49308 0.595656 0.373378
209 1 0.244029 0.203266 0.780841
210 1 0.754028 0.212714 0.784268
211 1 0.266387 0.763274 0.297963
212 1 0.739236 0.75347 0.29517
213 1 0.486544 0.774291 0.787184
214 1 0.00854008 0.739082 0.781633
215 1 0.00326842 0.257838 0.293151
216 1 0.493968 0.303798 0.280333
217 1 0.241618 0.753764 0.792026
218 1 0.740821 0.746266 0.772788
219 1 0.252587 0.21532 0.308365
220 1 0.769433 0.276073 0.303023
221 1 0.497715 0.26174 0.79487
222 1 0.998318 0.261694 0.783369
223 1 0.996128 0.782419 0.312671