LAMMPS data file via write_data, version 15 Apr 2020, timestep = 80000

672 atoms
4 atom types

-3.4579686169532664e-02 3.0016580037170126e+01 xlo xhi
7.4608754579850078e-01 1.1407912736501473e+01 ylo yhi
-1.2897857197549509e+00 2.1306785918154763e+01 zlo zhi
5.7970744428794803e-02 1.6642150909174433e-01 5.8641787878059189e-03 xy xz yz

Masses

1 12.0107
2 14.0067
3 15.9994
4 1.00794

Atoms # full

1 1 1 4.2804519090016563e-03 4.5398326603474510e+00 1.5682723305040844e+00 1.9269081033708941e+00 0 0 0
2 1 1 -5.5738323717716073e-03 1.9528012995499093e+01 1.7828931270153880e+00 2.5335410685665658e+00 0 0 0
3 1 1 -8.8215233645153705e-03 1.0878954891911032e+01 1.0312433050242031e+01 1.3529693114760276e+01 0 0 0
4 1 1 -1.4482439127832800e-02 2.5616550274719305e+01 1.0329144817651033e+01 1.3961738480766316e+01 0 0 0
5 1 1 -5.0420885040241385e-03 1.1900364932320187e+01 1.0323866603903706e+01 2.2521581329349174e+00 0 0 0
6 1 1 -1.2001478192945590e-02 2.7167028097498520e+01 1.0241697403431848e+01 2.2175756518253826e+00 0 0 0
7 1 1 -5.0835551879465056e-03 3.0465734740202146e+00 2.1463891540415094e+00 1.3190828262829045e+01 0 0 0
8 1 1 -7.7923533289687361e-03 1.8011974289750341e+01 2.0066847034695221e+00 1.3626647535132651e+01 0 0 0
9 1 1 -6.4784908292207510e-03 4.5952985531703163e+00 7.1268548113099648e+00 2.3680572346947488e+00 0 0 0
10 1 1 -7.5493088847037176e-03 1.9352192798280125e+01 7.3849190415134789e+00 2.4145847718115094e+00 0 0 0
11 1 1 -9.9720623230469506e-03 1.0554866136693278e+01 4.9434481802539487e+00 1.3462340172857743e+01 0 0 0
12 1 1 -3.6601543333346052e-03 2.5647628566133339e+01 5.2828821007526887e+00 1.3803766194442225e+01 0 0 0
13 1 1 -1.3075856275141583e-02 1.1981018617398306e+01 4.9637578343931699e+00 2.4976183091790620e+00 0 0 0
14 1 1 -1.6295082893659468e-02 2.7282382494110777e+01 5.1093190088708766e+00 2.3427992994324054e+00 0 0 0
15 1 1 -1.7187748466591588e-02 3.3001451043470524e+00 7.0833078970041576e+00 1.3375919829117290e+01 0 0 0
16 1 1 -1.1063775864019396e-02 1.8265679192219242e+01 7.0138318605690655e+00 1.3448979499875961e+01 0 0 0
17 1 1 -6.5113986979654939e-02 5.9176897389455272e+00 1.1883669205133844e+00 1.8726212085692326e+00 0 0 0
18 1 1 -6.5863403698378314e-02 2.0911162311437518e+01 1.4922291073920055e+00 2.4514245237761139e+00 0 0 0
19 1 1 -6.5801929511249302e-02 9.4962720070238529e+00 1.0602385611040367e+01 1.3286112779298263e+01 0 0 0
20 1 1 -6.2061265572622065e-02 2.4222772191202189e+01 1.0527050934172216e+01 1.3853418250710273e+01 0 0 0
21 1 1 -6.0957592794086086e-02 1.3234204602805191e+01 1.0802147176377957e+01 2.0221041070026726e+00 0 0 0
22 1 1 -5.7937546915607215e-02 2.8594846091919006e+01 1.0432880769923921e+01 1.9938412086257102e+00 0 0 0
23 1 1 -5.7802346545499705e-02 1.7033056159742310e+00 1.7502541800249845e+00 1.3203106812704005e+01 0 0 0
24 1 1 -6.8620151369033267e-02 1.6608586447110021e+01 1.7284790043822387e+00 1.3523183897657548e+01 0 0 0
25 1 1 -6.6102496149172851e-02 5.9193322180067005e+00 6.7062447296728527e+00 2.1182554467150903e+00 0 0 0
26 1 1 -5.4398988212768701e-02 2.0747231388760568e+01 7.1156355028530651e+00 2.2586135115142612e+00 0 0 0
27 1 1 -6.6719442890338251e-02 9.1747506023843926e+00 5.2560609290019595e+00 1.3262250010459084e+01 0 0 0
28 1 1 -5.2615929966474573e-02 2.4247915678294845e+01 5.4533786420869159e+00 1.3738932991695563e+01 0 0 0
29 1 1 -6.7642662205624884e-02 1.3362033809946235e+01 5.3076392686138245e+00 2.3684675479709183e+00 0 0 0
30 1 1 -6.3425039012931006e-02 2.8672863577673265e+01 5.3928420243926327e+00 2.2835294418298560e+00 0 0 0
31 1 1 -7.6743833802624659e-02 1.9329573505680364e+00 6.6235244576264982e+00 1.3303775210438239e+01 0 0 0
32 1 1 -7.2511319662075191e-02 1.6892111604156362e+01 6.6522253017551529e+00 1.3323588946570004e+01 0 0 0
33 1 1 -8.9515263466786552e-02 6.6030687643547674e+00 1.9578859341069459e+00 8.8043547086001706e-01 0 0 0
34 1 1 -9.9649607911074356e-02 2.1539464112634413e+01 2.1680043306695342e+00 1.4109251027040051e+00 0 0 0
35 1 1 -9.3911289877534082e-02 8.7508250017077351e+00 9.6907069754531658e+00 1.2523133351786900e+01 0 0 0
36 1 1 -9.7517095704787476e-02 2.3533237490199841e+01 9.7299643301214349e+00 1.2946304471632812e+01 0 0 0
37 1 1 -8.5131893767055072e-02 1.3951243949075190e+01 1.0117923405397754e+01 1.0372943495080880e+00 0 0 0
38 1 1 -9.0105438411301378e-02 2.9045145776832573e+01 9.8498647862722599e+00 7.8966289190431027e-01 0 0 0
39 1 1 -8.5622606438546314e-02 9.3503699946309859e-01 2.5107704301411222e+00 1.2264266320530158e+01 0 0 0
40 1 1 -9.1548182717254345e-02 1.5941240492028138e+01 2.4098148760790079e+00 1.2464794318569055e+01 0 0 0
41 1 1 -9.9392871191045340e-02 6.5924154047799437e+00 7.3644101355704592e+00 1.0847427669206202e+00 0 0 0
42 1 1 -9.1320800249736045e-02 2.1451415347379001e+01 7.7478317980010170e+00 1.1956155527187207e+00 0 0 0
43 1 1 -8.4577599785706198e-02 8.5220119897677442e+00 4.4437529890379057e+00 1.2304384261175791e+01 0 0 0
44 1 1 -8.6112119554998964e-02 2.3583057453044944e+01 4.6429316849298949e+00 1.2869108778751373e+01 0 0 0
45 1 1 -9.8927633797374709e-02 1.4177580058874291e+01 4.7010808847681407e+00 1.3690236258859794e+00 0 0 0
46 1 1 -9.7713976240726558e-02 2.9406041810002396e+01 4.7167707447040659e+00 1.2780360523862715e+00 0 0 0
47 1 1 -9.9059923803574562e-02 1.1709082875347703e+00 7.1634224272729785e+00 1.2280938106868657e+01 0 0 0
48 1 1 -9.7256606060187212e-02 1.6203352888362097e+01 7.3015236033928490e+00 1.2265585705972983e+01 0 0 0
49 1 1 -5.6436577738336963e-02 6.0997829815631190e+00 3.0660750567213206e+00 1.6676628849948005e-01 0 0 0
50 1 1 -4.7763283966763395e-02 2.0903437339894026e+01 3.1148098681112799e+00 5.8410688480401363e-01 0 0 0
51 1 1 -4.5166176970533337e-02 9.3173960491131798e+00 8.6177989978172604e+00 1.1774548623332720e+01 0 0 0
52 1 1 -5.3781957300975160e-02 2.4114109662582848e+01 8.8461724875493051e+00 1.1998601317786116e+01 0 0 0
53 1 1 -4.3157546223455155e-02 1.3441342410879239e+01 9.0037817713955679e+00 2.7839819681710565e-01 0 0 0
54 1 1 -5.1242675665752836e-02 2.8250293337491421e+01 9.0417713747549833e+00 -1.0242997938226939e-01 0 0 0
55 1 1 -5.3789636144620331e-02 1.4207219697506459e+00 3.5332107665917318e+00 1.1400017304154320e+01 0 0 0
56 1 1 -5.2323695946286969e-02 1.6559297262519131e+01 3.3187279000659697e+00 1.1558857590790897e+01 0 0 0
57 1 1 -5.8534435846493135e-02 6.0634698520917452e+00 8.3804512415657904e+00 2.8926933029577007e-01 0 0 0
58 1 1 -5.1081896933591289e-02 2.0717683121634163e+01 8.4116768043290335e+00 1.5117793826396664e-01 0 0 0
59 1 1 -4.7687468654218260e-02 9.1075091629325140e+00 3.4079460846665692e+00 1.1567057794298909e+01 0 0 0
60 1 1 -4.8337952694068959e-02 2.4118110972398810e+01 3.5837780477581247e+00 1.2075045548005029e+01 0 0 0
61 1 1 -5.9130051204350019e-02 1.3666299844970441e+01 3.7429600144515631e+00 5.1279271470576027e-01 0 0 0
62 1 1 -5.0940393160526558e-02 2.8767695072214401e+01 3.8780915700354943e+00 3.1048095285883726e-01 0 0 0
63 1 1 -4.9473746102456140e-02 1.6236384565162196e+00 8.2667129379711319e+00 1.1480224121602413e+01 0 0 0
64 1 1 -5.2812375181998342e-02 1.6639426039223661e+01 8.4580708501110067e+00 1.1605323072095253e+01 0 0 0
65 1 1 -9.5574014536297214e-02 4.7396202861614611e+00 3.4038720736001591e+00 3.8021852923231170e-01 0 0 0
66 1 1 -8.9747371811355142e-02 1.9530790813560962e+01 3.3933744107078918e+00 7.8653309363008583e-01 0 0 0
67 1 1 -9.9879327608830157e-02 1.0662966181042059e+01 8.3688831817484726e+00 1.2059360421157420e+01 0 0 0
68 1 1 -9.7571143283926604e-02 2.5552447373669008e+01 8.8346160720843585e+00 1.2115417980233062e+01 0 0 0
69 1 1 -9.0992513182227855e-02 1.2135077115108732e+01 8.5531803502507735e+00 6.0386114394869583e-01 0 0 0
70 1 1 -9.2733781849471369e-02 2.6909430718009279e+01 8.8831243721451028e+00 2.3304216144279088e-01 0 0 0
71 1 1 -9.2952299324451787e-02 2.7667206447816377e+00 3.8711089044639144e+00 1.1550937432013562e+01 0 0 0
72 1 1 -8.9953251035003540e-02 1.7946531860982802e+01 3.6133845237679099e+00 1.1817216367625793e+01 0 0 0
73 1 1 -1.0186348986398687e-01 4.6813216071092567e+00 8.6998116207885676e+00 4.8680024060003402e-01 0 0 0
74 1 1 -8.8682093149723709e-02 1.9315288664274615e+01 8.6199233702360090e+00 3.4230670687446230e-01 0 0 0
75 1 1 -9.2026679547113091e-02 1.0490629456233934e+01 3.1674234896877587e+00 1.1808542379539022e+01 0 0 0
76 1 1 -8.9759863965414077e-02 2.5479764482926836e+01 3.3612639844093519e+00 1.2253599364587544e+01 0 0 0
77 1 1 -9.6757686662628933e-02 1.2288634981509803e+01 3.4559791401336515e+00 6.8226787345651285e-01 0 0 0
78 1 1 -8.8626989413868817e-02 2.7358906344370116e+01 3.7405792821221668e+00 3.4976914299401707e-01 0 0 0
79 1 1 -9.2722101276402624e-02 3.0198647789362001e+00 8.5642468256231918e+00 1.1518236716325482e+01 0 0 0
80 1 1 -1.0108375415892613e-01 1.7948803981637894e+01 8.8674774304098118e+00 1.1938581115281290e+01 0 0 0
81 1 1 -5.9678853570227772e-02 3.9535965831192175e+00 2.7367911953131081e+00 1.3817107202043686e+00 0 0 0
82 1 1 -6.5027994266936048e-02 1.8796848374513782e+01 2.7916594652387960e+00 1.8214282894226157e+00 0 0 0
83 1 1 -6.6400012077618947e-02 1.1455404162815144e+01 9.1888936981694265e+00 1.2932916633664309e+01 0 0 0
84 1 1 -7.2413645625532597e-02 2.6337931981594664e+01 9.5357990150674627e+00 1.3023214108702803e+01 0 0 0
85 1 1 -5.8521014566096145e-02 1.1348978097677938e+01 9.1830190970789278e+00 1.6033675554665776e+00 0 0 0
86 1 1 -6.7518755502342626e-02 2.6334641939255224e+01 9.4704728155144355e+00 1.4347263235766823e+00 0 0 0
87 1 1 -6.5304306852178348e-02 3.6380344134134450e+00 3.2247752455081842e+00 1.2464628539283407e+01 0 0 0
88 1 1 -5.7735896812713829e-02 1.8683250203968051e+01 2.9540390660795728e+00 1.2858728813055651e+01 0 0 0
89 1 1 -6.7740977024972754e-02 3.9868504589240650e+00 8.0969911549976956e+00 1.5442719757320784e+00 0 0 0
90 1 1 -6.2568435826297036e-02 1.8609678006318529e+01 8.2222488196253991e+00 1.5043550444104303e+00 0 0 0
91 1 1 -6.3508434541784675e-02 1.1231316791410526e+01 3.8970933730962458e+00 1.2775827197771846e+01 0 0 0
92 1 1 -6.0725612291161787e-02 2.6247478153989015e+01 4.1776374985747520e+00 1.3134262803774178e+01 0 0 0
93 1 1 -6.1013212087390661e-02 1.1430674370752079e+01 4.0015730839494505e+00 1.6249440321084592e+00 0 0 0
94 1 1 -6.5996176427025793e-02 2.6650388753372773e+01 4.2237904814929994e+00 1.4121106009078512e+00 0 0 0
95 1 1 -6.6690760183668735e-02 3.8224977676832101e+00 8.1452669248857177e+00 1.2571977729001661e+01 0 0 0
96 1 1 -6.4888244152625049e-02 1.8816455721740326e+01 8.1512310049441545e+00 1.2801242531770198e+01 0 0 0
97 1 1 -2.9903513741797721e-01 3.7526281613367392e+00 1.1403860842210955e+01 2.9209555121881809e+00 0 0 0
98 1 1 -3.0645746797398948e-01 1.8715831714496911e+01 9.8314047537313054e-01 3.5765473129133563e+00 0 1 0
99 1 1 -3.0320509614111035e-01 1.1612473895478372e+01 1.1127214240201313e+01 1.4672364326516256e+01 0 -1 0
100 1 1 -3.0463800783679695e-01 2.6318679394775636e+01 1.1024105499754123e+01 1.5191792021964980e+01 0 -1 0
101 1 1 -3.1210216875505969e-01 1.1137366585598199e+01 1.1080693307642534e+01 3.3649767098211809e+00 0 -1 0
102 1 1 -3.1279606884876249e-01 2.6556014609027955e+01 1.1207234958461886e+01 3.2626979654999309e+00 0 -1 0
103 1 1 -3.1478135682300568e-01 3.9785878308819416e+00 1.2938373879726817e+00 1.4079206917855203e+01 0 1 0
104 1 1 -3.1455366862418283e-01 1.8853567232446796e+01 1.0625786361029848e+00 1.4535009470533415e+01 0 1 0
105 1 1 -3.0537006738011319e-01 3.8475385777428301e+00 6.2936072748051659e+00 3.4449295029674234e+00 0 0 0
106 1 1 -3.0655627280146425e-01 1.8619770227924342e+01 6.5830677077467401e+00 3.5743125046207744e+00 0 0 0
107 1 1 -3.1629216531836318e-01 1.1372884124726651e+01 5.7043519112909946e+00 1.4486624318683774e+01 0 0 0
108 1 1 -3.0698539542715980e-01 2.6530323146786291e+01 6.2246479770926415e+00 1.4668745779172761e+01 0 0 0
109 1 1 -3.0646392198177058e-01 1.1177846220501664e+01 5.6004000230125843e+00 3.6541231365639115e+00 0 0 0
110 1 1 -3.1513019805357639e-01 2.6470983144788978e+01 5.9297684431254343e+00 3.3535439426495444e+00 0 0 0
111 1 1 -3.1634281848460410e-01 4.2742942849356487e+00 6.2899894186300775e+00 1.4312664775955042e+01 0 0 0
112 1 1 -3.1187152782163391e-01 1.9143203613525113e+01 6.2136022567557170e+00 1.4450139792943768e+01 0 0 0
113 1 1 -1.1417019824465864e-02 8.4695244839382422e+00 2.1642036659427215e+00 1.7671510733273280e+01 0 0 0
114 1 1 -1.6947591401149799e-02 2.3259563694636526e+01 2.5066614458807805e+00 1.7892907542658307e+01 0 0 0
115 1 1 -9.8484393758083676e-03 6.8373651984620105e+00 9.7487465611769597e+00 6.2855631672726995e+00 0 0 0
116 1 1 -1.9437331037187137e-03 2.1991077970484145e+01 9.9268880004736975e+00 6.6732768874622543e+00 0 0 0
117 1 1 -5.3412577244810085e-03 1.0344453702938592e+00 9.8105109183178971e+00 1.7643004339683259e+01 0 0 0
118 1 1 1.3163541710111588e-03 1.5905904527592414e+01 1.0008306983345639e+01 1.7669842362414698e+01 0 0 0
119 1 1 -1.4455393074572935e-02 1.4276015471245346e+01 2.1022161931933541e+00 6.3866068144839758e+00 0 0 0
120 1 1 -1.4225898854745879e-02 2.9432493742094540e+01 2.3039125804073195e+00 6.4420053320736539e+00 0 0 0
121 1 1 -4.6993681052545574e-03 8.2356213803796496e+00 7.5247768636955135e+00 1.7629273983027709e+01 0 0 0
122 1 1 -8.3787340739026224e-03 2.3183528237942653e+01 7.7909030257611285e+00 1.8019571398878021e+01 0 0 0
123 1 1 -1.0361784528264216e-02 6.9231715899567137e+00 4.4609885384439734e+00 6.4016738233408823e+00 0 0 0
124 1 1 -1.0139267932648313e-02 2.1732611885791357e+01 4.8914595129685319e+00 6.3163663361790423e+00 0 0 0
125 1 1 -9.5504985104728664e-03 9.6758306097237634e-01 4.3624419991392696e+00 1.7665839960175056e+01 0 0 0
126 1 1 -1.4761810157232456e-02 1.5779824609879119e+01 4.3525585338737631e+00 1.7836417795708968e+01 0 0 0
127 1 1 -7.1630845984630050e-03 1.4283330704626943e+01 7.7035101122770993e+00 6.5013258587822413e+00 0 0 0
128 1 1 -7.3548332611334914e-03 2.9477296000509607e+01 7.7987936697436826e+00 6.6108662376581941e+00 0 0 0
129 1 1 -6.6272782427455323e-02 9.8760200268367111e+00 2.3719013809022194e+00 1.7640455404770151e+01 0 0 0
130 1 1 -7.6856066661295713e-02 2.4680419447670854e+01 2.7839091946990404e+00 1.7866760571287465e+01 0 0 0
131 1 1 -6.5443455270805778e-02 5.4430603308925098e+00 9.4594201109774279e+00 6.3718817817828253e+00 0 0 0
132 1 1 -7.1001592494668239e-02 2.0588937535915349e+01 9.7142836157347023e+00 6.6718946920170010e+00 0 0 0
133 1 1 -6.0184705203612632e-02 2.4454406062573435e+00 9.5382973906142308e+00 1.7769243464671725e+01 0 0 0
134 1 1 -6.3995370052733425e-02 1.7279220786488157e+01 9.6575725405366679e+00 1.7772443328175179e+01 0 0 0
135 1 1 -6.0353204462283483e-02 1.2866492236109185e+01 2.4161807006491856e+00 6.5017009610699654e+00 0 0 0
136 1 1 -6.7613405612808306e-02 2.8064960848148147e+01 2.5881321764228060e+00 6.4725017006734902e+00 0 0 0
137 1 1 -6.3296401271515257e-02 9.6364036476255510e+00 7.7458978627864559e+00 1.7503843815804828e+01 0 0 0
138 1 1 -6.1909051001956553e-02 2.4594409324321028e+01 8.0470730700624600e+00 1.8065792150479133e+01 0 0 0
139 1 1 -6.7494769554657760e-02 5.4603661769997229e+00 4.2859900668503830e+00 6.2621409624797257e+00 0 0 0
140 1 1 -6.6258975247907678e-02 2.0371879960416834e+01 4.4949482502888234e+00 6.4679358854137652e+00 0 0 0
141 1 1 -6.7776001169491645e-02 2.3772883095679544e+00 4.1124520947266978e+00 1.7682396115667238e+01 0 0 0
142 1 1 -7.0182116342303869e-02 1.7100922031515626e+01 3.9340362071195627e+00 1.8117962916654676e+01 0 0 0
143 1 1 -6.5537407245820578e-02 1.2876783026347985e+01 7.8134150078977278e+00 6.5565577407885449e+00 0 0 0
144 1 1 -6.0995203960769448e-02 2.8055883244665395e+01 8.0500918241315418e+00 6.6957473474436693e+00 0 0 0
145 1 1 -8.9453431542224224e-02 1.0632323964855598e+01 1.6323914567769822e+00 1.8620430708566907e+01 0 0 0
146 1 1 -9.7864515243069300e-02 2.5562488514174412e+01 2.1957899825555556e+00 1.8807661343849944e+01 0 0 0
147 1 1 -9.8070522359413964e-02 4.6616663489038608e+00 1.0318923554268583e+01 7.1504491750026702e+00 0 0 0
148 1 1 -1.0328126736583454e-01 1.9848227653985241e+01 1.0477232816517434e+01 7.6123193342608104e+00 0 0 0
149 1 1 -1.0120309865382442e-01 3.2315878144180963e+00 1.0200958638328004e+01 1.8775750003330728e+01 0 0 0
150 1 1 -9.3539649363227326e-02 1.7973161882442444e+01 1.0308611711516507e+01 1.8824421307043288e+01 0 0 0
151 1 1 -9.1198098139014999e-02 1.2188733526156401e+01 1.7981828506625603e+00 7.5873350584038821e+00 0 0 0
152 1 1 -9.7246260429788525e-02 2.7276974172010728e+01 1.8958188085083341e+00 7.3921638527275899e+00 0 0 0
153 1 1 -9.2390480137683237e-02 1.0504663315216206e+01 6.9169476056635455e+00 1.8217395491444677e+01 0 0 0
154 1 1 -9.6732946142430359e-02 2.5275563468317483e+01 7.2994729355521644e+00 1.9070812595327581e+01 0 0 0
155 1 1 -9.8740318621644479e-02 4.7486748846555997e+00 5.0532359490916061e+00 7.1698378067043240e+00 0 0 0
156 1 1 -9.6466153834079457e-02 1.9596665523492909e+01 5.1905099048248164e+00 7.4447278277657016e+00 0 0 0
157 1 1 -9.1495576565492190e-02 3.0484438806524450e+00 4.8748130980158093e+00 1.8668623704289885e+01 0 0 0
158 1 1 -8.4747549299901248e-02 1.7698804258547245e+01 4.6663135318689992e+00 1.9178278475294604e+01 0 0 0
159 1 1 -8.9186183082613044e-02 1.2165234703997692e+01 7.0499956916562745e+00 7.5626439126259211e+00 0 0 0
160 1 1 -9.6870573222125778e-02 2.7322540404173882e+01 7.2736139445782904e+00 7.5958232072369469e+00 0 0 0
161 1 1 -5.3962767467386916e-02 1.0190551791819576e+01 1.1409037470109311e+01 1.9602681062699958e+01 0 -1 0
162 1 1 -5.0022133452921100e-02 2.5080295925223986e+01 1.2050639601033089e+00 1.9675342872140995e+01 0 0 0
163 1 1 -5.4698450575079591e-02 5.2276737384272742e+00 1.1215530524759146e+01 8.1182533292080237e+00 0 0 0
164 1 1 -5.3738493500351522e-02 2.0359758098105299e+01 7.9625042050631301e-01 8.4866402414729887e+00 0 1 0
165 1 1 -5.2843258322079159e-02 2.6178596282343811e+00 1.1137865218631580e+01 1.9599333628264830e+01 0 0 0
166 1 1 -6.0894502766586006e-02 1.7391646574093389e+01 1.1254142621452658e+01 1.9779254380964211e+01 0 0 0
167 1 1 -5.6434625273434014e-02 1.2790487529884468e+01 8.2947773186504947e-01 8.4502728275011343e+00 0 0 0
168 1 1 -4.8365785624184129e-02 2.7792479970741923e+01 9.0785698011914640e-01 8.3075036648424074e+00 0 0 0
169 1 1 -5.2749554658912623e-02 1.0066772054090416e+01 6.0073933691935446e+00 1.9210037021957142e+01 0 0 0
170 1 1 -5.7009763617491077e-02 2.4691568323168575e+01 6.2682672129539938e+00 1.9834471150342821e+01 0 0 0
171 1 1 -4.9400464640286794e-02 5.4238550509316337e+00 5.9500382863338164e+00 8.0624838937126881e+00 0 0 0
172 1 1 -5.5040099736733433e-02 2.0180067524843473e+01 6.1272075493662870e+00 8.3323279436866642e+00 0 0 0
173 1 1 -4.9231331478047091e-02 2.3916652218805909e+00 5.8420552501261760e+00 1.9468693455529746e+01 0 0 0
174 1 1 -5.2776263451471614e-02 1.7180103315441066e+01 5.7763237194235781e+00 1.9833881009444433e+01 0 0 0
175 1 1 -5.4484135035159940e-02 1.2759886275880213e+01 6.0858716139053364e+00 8.3834671907393226e+00 0 0 0
176 1 1 -5.5906791544422844e-02 2.7854803726944095e+01 6.2393003454582425e+00 8.3864692124253644e+00 0 0 0
177 1 1 -9.6241875693601570e-02 8.7847993019185040e+00 1.1259561592287469e+01 1.9570558796685781e+01 0 -1 0
178 1 1 -9.5962143805776876e-02 2.3660591501032815e+01 9.9072057762661525e-01 1.9740977639348024e+01 0 0 0
179 1 1 -1.0212432587460070e-01 6.5460461456328334e+00 8.4928446887212006e-01 7.8773288110342357e+00 0 1 0
180 1 1 -9.6181268948134044e-02 2.1714587912704214e+01 1.0803527915904469e+00 8.2884073617576686e+00 0 1 0
181 1 1 -9.7167743079557056e-02 1.2130876465767622e+00 1.1379074918781914e+01 1.9497987524648671e+01 0 0 0
182 1 1 -9.5855065636798936e-02 1.6013265407501009e+01 9.1744723039703158e-01 1.9447266033617332e+01 0 1 0
183 1 1 -9.5838285925868155e-02 1.4220066211902378e+01 1.1156374815840145e+01 8.1576079173322711e+00 0 -1 0
184 1 1 -9.5591980872313465e-02 2.9235987278045389e+01 7.7028784062975331e-01 8.3034554660743787e+00 0 0 0
185 1 1 -1.0444483097344708e-01 8.6908848538629027e+00 5.8010151092521731e+00 1.9167657275021547e+01 0 0 0
186 1 1 -1.0860605614078218e-01 2.3364008140683367e+01 5.8515757325448252e+00 1.9439757983208665e+01 0 0 0
187 1 1 -1.0564666601828791e-01 6.7918753230775994e+00 6.1834877261279839e+00 8.0857707997282251e+00 0 0 0
188 1 1 -9.4395696527218978e-02 2.1565331602929170e+01 6.3050071117275861e+00 8.1610020740849052e+00 0 0 0
189 1 1 -1.0040645208887461e-01 9.9859548288451760e-01 5.9650830145671172e+00 1.9388264619900816e+01 0 0 0
190 1 1 -9.8109469517854070e-02 1.5827388538408895e+01 6.1110583187892367e+00 1.9451398030777234e+01 0 0 0
191 1 1 -9.2718129969932186e-02 1.4167736049333163e+01 5.8239136583007198e+00 8.0961833140852519e+00 0 0 0
192 1 1 -9.2668049165923694e-02 2.9204094061802852e+01 5.9523689879817496e+00 8.0654503409400995e+00 0 0 0
193 1 1 -5.4148517416545604e-02 7.9224363363172428e+00 1.2535714044842297e+00 1.8585055794732043e+01 0 0 0
194 1 1 -6.6547645343565262e-02 2.2698273163975244e+01 1.6086930160859385e+00 1.8861417379298935e+01 0 0 0
195 1 1 -7.4409468390965586e-02 7.4401984223989883e+00 1.0810744469715248e+01 6.9729282023444235e+00 0 0 0
196 1 1 -5.7094936941936153e-02 2.2574551703462451e+01 1.1062032304478949e+01 7.3174925565727538e+00 0 0 0
197 1 1 -5.9190905185676795e-02 1.5266486802429636e+01 1.0948566845958743e+01 1.8460431139394579e+01 0 0 0
198 1 1 -4.9229667852836750e-02 4.5898595681737142e-01 1.0790526761154913e+01 1.8492976695392109e+01 1 0 0
199 1 1 -5.3882444834359063e-02 3.0032943404682658e+01 1.3808127738965517e+00 7.3327787079163045e+00 -1 0 0
200 1 1 -6.4402549820936433e-02 1.4930747948128227e+01 1.1751099153851525e+00 7.2156327512539775e+00 0 0 0
201 1 1 -7.3132779051757926e-02 7.6956953873362188e+00 6.4721922843947732e+00 1.8393980558605122e+01 0 0 0
202 1 1 -7.1766205952995293e-02 2.2557974477882418e+01 6.6475887235728086e+00 1.8583517687489028e+01 0 0 0
203 1 1 -5.9355611162357089e-02 7.5885569503305890e+00 5.4272305846818156e+00 7.1699484389983308e+00 0 0 0
204 1 1 -7.6426235036355872e-02 2.2426031424563899e+01 5.7355699790384866e+00 7.1953807693876488e+00 0 0 0
205 1 1 -6.7138163342904331e-02 1.5053916535798413e+01 5.3910702836308335e+00 1.8500604981755892e+01 0 0 0
206 1 1 -6.5901505270572799e-02 2.2115980430366700e-01 5.3233683016848587e+00 1.8392827172240068e+01 1 0 0
207 1 1 -5.5991885914689676e-02 7.6526501666661167e-02 6.7639256916642632e+00 7.2966297368941984e+00 0 0 0
208 1 1 -5.3263556405322286e-02 1.4911524090232460e+01 6.6349508667857959e+00 7.2574052394821518e+00 0 0 0
209 1 1 -3.1353619665730414e-01 7.5661174892810656e+00 3.0573737829392309e+00 1.6796075131572778e+01 0 0 0
210 1 1 -3.1571900208316239e-01 2.2432161528545141e+01 3.3752381217775538e+00 1.6931971066203850e+01 0 0 0
211 1 1 -3.0554508298043237e-01 7.6718885099876193e+00 8.9990263130981312e+00 5.2205504663693052e+00 0 0 0
212 1 1 -3.0367311222084870e-01 2.2781056593910535e+01 9.0288965472164211e+00 5.6796149175652069e+00 0 0 0
213 1 1 -3.0154901040126786e-01 1.5067144717354834e+01 9.1456251897962648e+00 1.6679898724414549e+01 0 0 0
214 1 1 -3.1005483709179538e-01 3.0993822390460324e-01 9.0097844295209395e+00 1.6537712584822309e+01 1 0 0
215 1 1 -3.1622812113144899e-01 1.8446867786723314e-01 3.0796966875320075e+00 5.2946197707667562e+00 0 0 0
216 1 1 -3.0324843713556665e-01 1.5100784133102293e+01 2.7260356069993854e+00 5.2248409632019923e+00 0 0 0
217 1 1 -3.1011215442405160e-01 7.3670082331571516e+00 8.3242502679461428e+00 1.6629143247158034e+01 0 0 0
218 1 1 -3.1602167991474162e-01 2.2386329610810240e+01 8.6848663735354208e+00 1.7031350980754674e+01 0 0 0
219 1 1 -3.1078363710637996e-01 7.7681876548151330e+00 3.5804933065262268e+00 5.4454482377424140e+00 0 0 0
220 1 1 -3.0198582341588837e-01 2.2584339077624495e+01 4.1098753286971057e+00 5.2622330640075425e+00 0 0 0
221 1 1 -3.0958374654106968e-01 1.5020567507209991e+01 3.7490653625827681e+00 1.6610050640666437e+01 0 0 0
222 1 1 -3.1473341039174962e-01 1.6371985793514460e-01 3.5739159141308470e+00 1.6614997683831142e+01 1 0 0
223 1 1 -3.0841236691322266e-01 2.6269697713894519e-01 8.5087759772820775e+00 5.5138334262505522e+00 0 0 0
224 1 1 -3.0716529723097752e-01 1.5075754446060259e+01 8.5434505664265856e+00 5.4796398789180207e+00 0 0 0
225 1 2 3.8172876014951512e-01 6.6371834898936992e+00 1.0829593826553417e+01 2.7398944165511319e+00 0 0 0
226 1 2 3.8834557604132874e-01 2.1726845806186379e+01 1.1121505770730728e+01 3.3404184162344492e+00 0 0 0
227 1 2 3.9805597752329103e-01 8.7722906620066698e+00 1.0964182705372567e+00 1.4073024055080950e+01 0 0 0
228 1 2 3.8339851785590356e-01 2.3317589364408278e+01 9.8809634613122665e-01 1.4568571427991627e+01 0 0 0
229 1 2 3.8451630076882132e-01 1.3907138059210929e+01 1.0820274597513662e+00 3.0491348329760157e+00 0 0 0
230 1 2 3.9573834599601782e-01 2.9538415996945879e+01 1.1243716391754926e+01 2.8910966015162245e+00 0 -1 0
231 1 2 3.9555695306441602e-01 1.1450431525425104e+00 1.1366609477441106e+01 1.4250915696745224e+01 0 0 0
232 1 2 3.9111980556035486e-01 1.5849138316688121e+01 8.5085456266873538e-01 1.4508788917464120e+01 0 1 0
233 1 2 3.8246104610762943e-01 6.6827562721848226e+00 5.6640648606621840e+00 2.9686443000452245e+00 0 0 0
234 1 2 3.9485843109545254e-01 2.1585703046762639e+01 6.0711716286152200e+00 3.0433140056381003e+00 0 0 0
235 1 2 3.9447111735790147e-01 8.4372257983695871e+00 6.1859472426987221e+00 1.4222472436944525e+01 0 0 0
236 1 2 4.0267190886567999e-01 2.3451823970410018e+01 6.4704508335028370e+00 1.4713669724677823e+01 0 0 0
237 1 2 3.8064055811282554e-01 1.3914617319463398e+01 6.4552729962638855e+00 3.1927885527023632e+00 0 0 0
238 1 2 3.9093414703917184e-01 2.9250196840998015e+01 6.3973464371743640e+00 3.3177358982361023e+00 0 0 0
239 1 2 3.8105964605414372e-01 1.3563949254658731e+00 5.7048768751611068e+00 1.4392040418630321e+01 0 0 0
240 1 2 3.8908577722652743e-01 1.6222124866719540e+01 5.6995601727922773e+00 1.4263286416487107e+01 0 0 0
241 1 2 4.0400295338640274e-01 7.0575941367416997e+00 3.7975483710311253e+00 -7.9087174098061008e-01 0 0 0
242 1 2 4.0139371165846305e-01 2.1710589631492219e+01 3.9459560184573976e+00 -4.5684870913592213e-01 0 0 0
243 1 2 4.0196776852520089e-01 8.4636958375697553e+00 7.7872188281936392e+00 1.0761406593434044e+01 0 0 0
244 1 2 4.0172737741924730e-01 2.3230120075829852e+01 8.0429491260975876e+00 1.0976180785888996e+01 0 0 0
245 1 2 4.0900740612110753e-01 1.4286436053447746e+01 8.3372981058439741e+00 -8.3121957988463691e-01 0 0 0
246 1 2 3.9108307610965909e-01 2.9067637508937555e+01 8.2982366556334384e+00 2.1295808802924007e+01 0 0 -1
247 1 2 3.9513379471532456e-01 5.5396073495307852e-01 4.2037044194583739e+00 1.0296097287739963e+01 0 0 0
248 1 2 4.0030445694475414e-01 1.5806251903426586e+01 3.8696215591524128e+00 1.0349756423763219e+01 0 0 0
249 1 2 3.8994599738405927e-01 6.9891798711407995e+00 9.1257578156773249e+00 -7.1272862728205133e-01 0 0 0
250 1 2 4.0731761127636584e-01 2.1327236795458610e+01 8.8751255886798877e+00 -1.1940089398399345e+00 0 0 0
251 1 2 4.1069205511672324e-01 8.3402999469553958e+00 2.5052033592653906e+00 1.0555422820334144e+01 0 0 0
252 1 2 4.1036192785193687e-01 2.3325326462876216e+01 2.7308431823729373e+00 1.1079882787116468e+01 0 0 0
253 1 2 3.9092392064627968e-01 1.4594946792428066e+01 2.9317320230851878e+00 -4.4638465311679165e-01 0 0 0
254 1 2 4.0794422150493576e-01 2.9670741802201885e+01 3.0170450384820415e+00 -5.8024590573380841e-01 0 0 0
255 1 2 4.0350242876254200e-01 7.1831159718882964e-01 9.0601288281634123e+00 1.0592003540699658e+01 0 0 0
256 1 2 4.0205186106683544e-01 1.5753363165199668e+01 9.2967251130449231e+00 1.0639282166330709e+01 0 0 0
257 1 2 3.8963745476933892e-01 2.5581606101205963e+00 3.2655490458693892e+00 1.6082294818762399e+00 0 0 0
258 1 2 3.8839296733023732e-01 1.7405050150818990e+01 3.3560908807334697e+00 2.1625057983520728e+00 0 0 0
259 1 2 3.8639273886851594e-01 1.2873600039444339e+01 8.6302790074953357e+00 1.3157811527044373e+01 0 0 0
260 1 2 3.8910324581533845e-01 2.7893037378607101e+01 9.4502559259093886e+00 1.2941186499653497e+01 0 0 0
261 1 2 3.8385217249614267e-01 1.0134898279600227e+01 8.3621596809289258e+00 2.0522674184948806e+00 0 0 0
262 1 2 3.8929520700268899e-01 2.4821058719506251e+01 9.2086359075642807e+00 1.7128876634777996e+00 0 0 0
263 1 2 3.7394301746937747e-01 5.0643453908338607e+00 3.7153463096764501e+00 1.2644941985223461e+01 0 0 0
264 1 2 3.6674555907657130e-01 2.0106199662520776e+01 3.4539294793118662e+00 1.3224679472188704e+01 0 0 0
265 1 2 3.7740065265230510e-01 2.5600458554973837e+00 8.6285530720053885e+00 1.8091200612629454e+00 0 0 0
266 1 2 3.9453032095159479e-01 1.7154146582998600e+01 8.7701989884110656e+00 1.6719341595635155e+00 0 0 0
267 1 2 3.8178488734678240e-01 1.2724656622916182e+01 3.5092761948219353e+00 1.2899492475353364e+01 0 0 0
268 1 2 3.9064832060435817e-01 2.7716420911728719e+01 3.8274591860398708e+00 1.3315160419444764e+01 0 0 0
269 1 2 3.9313762281557463e-01 9.9468485924320760e+00 3.4675703350332729e+00 1.8549474921414371e+00 0 0 0
270 1 2 3.9414837616666598e-01 2.5120043636876602e+01 3.8825013393144863e+00 1.5583717485161652e+00 0 0 0
271 1 2 3.8292570442705975e-01 5.1140188839992673e+00 8.9423220943053536e+00 1.2881962089715557e+01 0 0 0
272 1 2 3.8691758864984294e-01 2.0247265579551826e+01 8.5758590514609434e+00 1.3137595083786763e+01 0 0 0
273 1 2 3.9463364060404177e-01 1.0601281077892708e+01 3.3321280697325388e+00 1.6687004387379091e+01 0 0 0
274 1 2 3.8406754167786494e-01 2.5273901302398361e+01 3.7028013765435426e+00 1.6835763260495085e+01 0 0 0
275 1 2 3.9378817565126767e-01 4.7466782622410975e+00 8.3803412394638208e+00 5.5134833937245205e+00 0 0 0
276 1 2 3.8357820183653846e-01 1.9830433622494155e+01 8.6347013232418171e+00 5.8808111311850473e+00 0 0 0
277 1 2 3.9335152326075606e-01 3.2843641829280701e+00 8.9175342966406053e+00 1.6670122332097186e+01 0 0 0