ITEM: TIMESTEP
0
ITEM: NUMBER OF ATOMS
576
ITEM: BOX BOUNDS xy xz yz pp pp pp
-3.8734541101000000e+00 1.7704000473000001e+01 0.0000000000000000e+00
0.0000000000000000e+00 2.5111999511699999e+01 -3.8734541101000000e+00
0.0000000000000000e+00 1.2813326682700000e+01 0.0000000000000000e+00
ITEM: ATOMS id type xs ys zs
1 1 0.223062 0.316224 0.868365
2 1 0.776938 0.683776 0.131635
3 1 0.026938 0.566224 0.631635
4 1 0.473062 0.933776 0.368365
5 1 0.223062 0.816224 0.868365
6 1 0.776938 0.183776 0.131635
7 1 0.026938 0.0662235 0.631635
8 1 0.473062 0.433776 0.368365
9 1 0.723062 0.316224 0.868365
10 1 0.276938 0.683776 0.131635
11 1 0.526938 0.566224 0.631635
12 1 0.973062 0.933776 0.368365
13 1 0.723062 0.816224 0.868365
14 1 0.276938 0.183776 0.131635
15 1 0.526938 0.0662235 0.631635
16 1 0.973062 0.433776 0.368365
17 1 0.156885 0.317663 0.68304
18 1 0.843115 0.682337 0.31696
19 1 0.0931137 0.567663 0.816959
20 1 0.406886 0.932337 0.183041
21 1 0.156885 0.817663 0.68304
22 1 0.843115 0.182337 0.316959
23 1 0.0931137 0.0676629 0.816959
24 1 0.406885 0.432337 0.183041
25 1 0.656885 0.317663 0.683041
26 1 0.343114 0.682337 0.316959
27 1 0.593115 0.567663 0.81696
28 1 0.906886 0.932337 0.183041
29 1 0.656885 0.817663 0.683041
30 1 0.343114 0.182337 0.316959
31 1 0.593114 0.0676629 0.816959
32 1 0.906885 0.432337 0.18304
33 1 0.276342 0.256665 0.69287
34 1 0.723658 0.743335 0.30713
35 1 0.973657 0.506665 0.80713
36 1 0.526343 0.993335 0.19287
37 1 0.276342 0.756665 0.692871
38 1 0.723657 0.243335 0.30713
39 1 0.973657 0.0066653 0.80713
40 1 0.526342 0.493335 0.19287
41 1 0.776343 0.256665 0.69287
42 1 0.223657 0.743335 0.30713
43 1 0.473658 0.506665 0.80713
44 1 0.0263427 0.993335 0.19287
45 1 0.776342 0.756665 0.69287
46 1 0.223657 0.243335 0.30713
47 1 0.473657 0.0066653 0.80713
48 1 0.0263423 0.493335 0.192871
49 1 0.296663 0.278995 0.875647
50 1 0.703337 0.721005 0.124353
51 1 0.953338 0.528995 0.624353
52 1 0.546662 0.971005 0.375647
53 1 0.296663 0.778995 0.875647
54 1 0.703337 0.221005 0.124353
55 1 0.953338 0.028995 0.624353
56 1 0.546663 0.471005 0.375647
57 1 0.796662 0.278995 0.875647
58 1 0.203338 0.721005 0.124353
59 1 0.453337 0.528995 0.624353
60 1 0.0466624 0.971005 0.375647
61 1 0.796663 0.778995 0.875647
62 1 0.203338 0.221005 0.124353
63 1 0.453338 0.028995 0.624353
64 1 0.0466626 0.471005 0.375647
65 1 0.333003 0.308239 0.720945
66 1 0.666997 0.691761 0.279055
67 1 0.916997 0.558239 0.779054
68 1 0.583003 0.941761 0.220945
69 1 0.333003 0.808239 0.720945
70 1 0.666997 0.191761 0.279055
71 1 0.916997 0.0582392 0.779054
72 1 0.583003 0.441761 0.220945
73 1 0.833003 0.308239 0.720945
74 1 0.166997 0.691761 0.279055
75 1 0.416997 0.558239 0.779055
76 1 0.0830027 0.941761 0.220946
77 1 0.833003 0.808239 0.720945
78 1 0.166997 0.191761 0.279054
79 1 0.416997 0.0582392 0.779054
80 1 0.0830027 0.441761 0.220945
81 1 0.214941 0.367544 0.712206
82 1 0.785059 0.632456 0.287794
83 1 0.0350588 0.617543 0.787794
84 1 0.464941 0.882457 0.212206
85 1 0.214941 0.867544 0.712206
86 1 0.785059 0.132457 0.287794
87 1 0.0350588 0.117543 0.787794
88 1 0.464941 0.382456 0.212206
89 1 0.714941 0.367543 0.712206
90 1 0.285059 0.632457 0.287794
91 1 0.535059 0.617544 0.787794
92 1 0.964941 0.882457 0.212206
93 1 0.714941 0.867544 0.712206
94 1 0.285059 0.132457 0.287794
95 1 0.535059 0.117543 0.787794
96 1 0.964941 0.382456 0.212206
97 2 0.208884 0.320634 0.94537
98 2 0.791116 0.679366 0.0546302
99 2 0.0411156 0.570634 0.55463
100 2 0.458884 0.929366 0.44537
101 2 0.208884 0.820634 0.94537
102 2 0.791116 0.179366 0.0546302
103 2 0.0411156 0.0706341 0.55463
104 2 0.458884 0.429366 0.44537
105 2 0.708884 0.320634 0.94537
106 2 0.291116 0.679366 0.0546302
107 2 0.541116 0.570634 0.55463
108 2 0.958884 0.929366 0.44537
109 2 0.708884 0.820634 0.94537
110 2 0.291116 0.179366 0.0546302
111 2 0.541116 0.0706341 0.55463
112 2 0.958884 0.429366 0.44537
113 2 0.0966826 0.328451 0.627866
114 2 0.903317 0.671548 0.372134
115 2 0.153318 0.578451 0.872134
116 2 0.346682 0.921549 0.127866
117 2 0.0966826 0.828452 0.627866
118 2 0.903317 0.171549 0.372134
119 2 0.153318 0.0784514 0.872134
120 2 0.346683 0.421549 0.127866
121 2 0.596683 0.328451 0.627866
122 2 0.403317 0.671549 0.372134
123 2 0.653317 0.578451 0.872134
124 2 0.846682 0.921549 0.127866
125 2 0.596683 0.828451 0.627866
126 2 0.403318 0.171549 0.372134
127 2 0.653318 0.0784514 0.872134
128 2 0.846683 0.421548 0.127866
129 2 0.296176 0.226305 0.642858
130 2 0.703824 0.773695 0.357142
131 2 0.953824 0.476305 0.857142
132 2 0.546176 0.0236949 0.142858
133 2 0.296176 0.726305 0.642858
134 2 0.703824 0.273695 0.357142
135 2 0.953824 0.976305 0.857142
136 2 0.546176 0.523695 0.142858
137 2 0.796176 0.226305 0.642858
138 2 0.203824 0.773695 0.357142
139 2 0.453824 0.476305 0.857142
140 2 0.0461756 0.023695 0.142858
141 2 0.796176 0.726305 0.642858
142 2 0.203824 0.273695 0.357142
143 2 0.453824 0.976305 0.857142
144 2 0.0461756 0.523695 0.142858
145 2 0.321224 0.263604 0.95854
146 2 0.678776 0.736396 0.04146
147 2 0.928776 0.513604 0.54146
148 2 0.571224 0.986396 0.45854
149 2 0.321224 0.763604 0.95854
150 2 0.678776 0.236396 0.04146
151 2 0.928776 0.0136041 0.54146
152 2 0.571224 0.486396 0.45854
153 2 0.821224 0.263604 0.95854
154 2 0.178776 0.736396 0.04146
155 2 0.428776 0.513604 0.54146
156 2 0.0712238 0.986396 0.45854
157 2 0.821224 0.763604 0.95854
158 2 0.178776 0.236396 0.04146
159 2 0.428776 0.0136041 0.54146
160 2 0.0712238 0.486396 0.45854
161 2 0.385756 0.306567 0.688951
162 2 0.614244 0.693433 0.311049
163 2 0.864244 0.556567 0.811049
164 2 0.635756 0.943433 0.188951
165 2 0.385756 0.806567 0.688951
166 2 0.614244 0.193433 0.311049
167 2 0.864244 0.0565671 0.811049
168 2 0.635756 0.443433 0.188951
169 2 0.885756 0.306567 0.688951
170 2 0.114244 0.693433 0.311049
171 2 0.364244 0.556567 0.811049
172 2 0.135756 0.943433 0.188951
173 2 0.885756 0.806567 0.688951
174 2 0.114244 0.193433 0.311049
175 2 0.364244 0.0565671 0.811049
176 2 0.135756 0.443433 0.188951
177 2 0.186514 0.406603 0.67741
178 2 0.813486 0.593397 0.32259
179 2 0.0634858 0.656604 0.82259
180 2 0.436514 0.843396 0.17741
181 2 0.186514 0.906603 0.67741
182 2 0.813486 0.0933965 0.32259
183 2 0.0634858 0.156604 0.82259
184 2 0.436514 0.343397 0.17741
185 2 0.686514 0.406604 0.67741
186 2 0.313486 0.593396 0.32259
187 2 0.563486 0.656603 0.82259
188 2 0.936514 0.843396 0.17741
189 2 0.686514 0.906603 0.67741
190 2 0.313486 0.0933965 0.32259
191 2 0.563486 0.156604 0.82259
192 2 0.936514 0.343397 0.17741
193 3 0.151333 0.295517 0.786537
194 3 0.848667 0.704483 0.213463
195 3 0.0986665 0.545518 0.713464
196 3 0.401333 0.954483 0.286537
197 3 0.151333 0.795517 0.786537
198 3 0.848667 0.204483 0.213463
199 3 0.0986665 0.0455176 0.713464
200 3 0.401333 0.454483 0.286537
201 3 0.651333 0.295517 0.786537
202 3 0.348667 0.704483 0.213463
203 3 0.598667 0.545517 0.713463
204 3 0.901334 0.954482 0.286536
205 3 0.651333 0.795517 0.786537
206 3 0.348667 0.204482 0.213463
207 3 0.598667 0.0455175 0.713463
208 3 0.901333 0.454483 0.286537
209 3 0.0712453 0.304697 0.806022
210 3 0.928755 0.695303 0.193978
211 3 0.178754 0.554697 0.693978
212 3 0.321245 0.945303 0.306022
213 3 0.0712453 0.804697 0.806023
214 3 0.928755 0.195303 0.193978
215 3 0.178754 0.0546968 0.693978
216 3 0.321245 0.445303 0.306022
217 3 0.571245 0.304697 0.806022
218 3 0.428755 0.695303 0.193978
219 3 0.678755 0.554697 0.693978
220 3 0.821246 0.945303 0.306022
221 3 0.571245 0.804697 0.806022
222 3 0.428755 0.195303 0.193978
223 3 0.678755 0.0546968 0.693978
224 3 0.821245 0.445303 0.306023
225 3 0.194651 0.275046 0.63518
226 3 0.805349 0.724954 0.36482
227 3 0.0553496 0.525046 0.864819
228 3 0.444651 0.974954 0.135181
229 3 0.194651 0.775046 0.63518
230 3 0.805349 0.224954 0.36482
231 3 0.0553495 0.0250464 0.864819
232 3 0.444651 0.474954 0.13518
233 3 0.694651 0.275046 0.63518
234 3 0.305349 0.724954 0.36482
235 3 0.555349 0.525046 0.86482
236 3 0.94465 0.974954 0.135181
237 3 0.694651 0.775046 0.63518
238 3 0.305349 0.224954 0.364819
239 3 0.555349 0.0250463 0.864819
240 3 0.944651 0.474954 0.13518
241 3 0.151622 0.252596 0.528455
242 3 0.848378 0.747404 0.471545
243 3 0.0983774 0.502596 0.971545
244 3 0.401623 0.997404 0.0284548
245 3 0.151622 0.752596 0.528455
246 3 0.848378 0.247404 0.471545
247 3 0.0983774 0.00259572 0.971545
248 3 0.401622 0.497404 0.0284547
249 3 0.651623 0.252596 0.528455
250 3 0.348378 0.747404 0.471545
251 3 0.598378 0.502596 0.971545
252 3 0.901623 0.997404 0.028455
253 3 0.651622 0.752596 0.528455
254 3 0.348377 0.247404 0.471545
255 3 0.598377 0.00259572 0.971545
256 3 0.901622 0.497404 0.0284546
257 3 0.282694 0.233184 0.798733
258 3 0.717306 0.766816 0.201268
259 3 0.967306 0.483184 0.701267
260 3 0.532694 0.0168162 0.298733
261 3 0.282694 0.733184 0.798732
262 3 0.717306 0.266816 0.201267
263 3 0.967306 0.983184 0.701267
264 3 0.532694 0.516816 0.298733
265 3 0.782694 0.233184 0.798733
266 3 0.217306 0.766816 0.201267
267 3 0.467306 0.483184 0.701267
268 3 0.0326938 0.0168162 0.298733
269 3 0.782694 0.733184 0.798733
270 3 0.217306 0.266816 0.201267
271 3 0.467306 0.983184 0.701267
272 3 0.0326938 0.516816 0.298732
273 3 0.219584 0.193632 0.80512
274 3 0.780416 0.806368 0.19488
275 3 0.0304159 0.443632 0.69488
276 3 0.469584 0.0563679 0.30512
277 3 0.219584 0.693632 0.80512
278 3 0.780416 0.306368 0.19488
279 3 0.0304159 0.943632 0.69488
280 3 0.469584 0.556368 0.30512
281 3 0.719584 0.193632 0.80512
282 3 0.280416 0.806368 0.19488
283 3 0.530416 0.443632 0.69488
284 3 0.969584 0.0563678 0.30512
285 3 0.719584 0.693632 0.80512
286 3 0.280416 0.306368 0.19488
287 3 0.530416 0.943632 0.69488
288 3 0.969584 0.556368 0.30512
289 3 0.360887 0.305558 0.838121
290 3 0.639113 0.694442 0.161879
291 3 0.889113 0.555558 0.661879
292 3 0.610887 0.944442 0.338121
293 3 0.360887 0.805558 0.838121
294 3 0.639113 0.194442 0.161879
295 3 0.889113 0.0555584 0.661879
296 3 0.610887 0.444442 0.338121
297 3 0.860887 0.305558 0.838121
298 3 0.139113 0.694442 0.161879
299 3 0.389113 0.555558 0.661879
300 3 0.110887 0.944442 0.33812
301 3 0.860887 0.805558 0.838121
302 3 0.139113 0.194442 0.161879
303 3 0.389113 0.0555584 0.661879
304 3 0.110887 0.444442 0.338121
305 3 0.398793 0.353941 0.900368
306 3 0.601207 0.646059 0.099632
307 3 0.851207 0.603941 0.599632
308 3 0.648793 0.896059 0.400368
309 3 0.398793 0.853941 0.900368
310 3 0.601207 0.146059 0.099632
311 3 0.851207 0.103941 0.599632
312 3 0.648793 0.396059 0.400368
313 3 0.898793 0.353941 0.900368
314 3 0.101207 0.646059 0.099632
315 3 0.351207 0.603941 0.599632
316 3 0.148793 0.896059 0.400368
317 3 0.898793 0.853941 0.900368
318 3 0.101207 0.146059 0.0996319
319 3 0.351207 0.103941 0.599632
320 3 0.148793 0.396059 0.400368
321 3 0.284186 0.35564 0.672186
322 3 0.715814 0.64436 0.327814
323 3 0.965814 0.60564 0.827814
324 3 0.534186 0.89436 0.172186
325 3 0.284186 0.85564 0.672186
326 3 0.715814 0.14436 0.327814
327 3 0.965814 0.10564 0.827814
328 3 0.534186 0.39436 0.172186
329 3 0.784186 0.35564 0.672186
330 3 0.215814 0.64436 0.327814
331 3 0.465814 0.60564 0.827814
332 3 0.0341858 0.89436 0.172186
333 3 0.784186 0.85564 0.672186
334 3 0.215814 0.14436 0.327814
335 3 0.465814 0.10564 0.827814
336 3 0.0341863 0.39436 0.172186
337 3 0.328248 0.403631 0.64516
338 3 0.671752 0.596369 0.35484
339 3 0.921751 0.653631 0.85484
340 3 0.578249 0.846369 0.14516
341 3 0.328248 0.903631 0.64516
342 3 0.671751 0.0963694 0.35484
343 3 0.921751 0.153631 0.85484
344 3 0.578249 0.346369 0.14516
345 3 0.828249 0.403631 0.64516
346 3 0.171751 0.596369 0.35484
347 3 0.421751 0.653631 0.85484
348 3 0.0782486 0.846369 0.14516
349 3 0.828249 0.903631 0.64516
350 3 0.171751 0.0963694 0.35484
351 3 0.421751 0.153631 0.85484
352 3 0.0782485 0.346369 0.14516
353 3 0.240407 0.37045 0.831006
354 3 0.759593 0.62955 0.168994
355 3 0.00959314 0.62045 0.668995
356 3 0.490407 0.87955 0.331006
357 3 0.240407 0.87045 0.831006
358 3 0.759593 0.12955 0.168994
359 3 0.00959313 0.12045 0.668995
360 3 0.490407 0.37955 0.331006
361 3 0.740407 0.37045 0.831006
362 3 0.259593 0.62955 0.168994
363 3 0.509593 0.62045 0.668994
364 3 0.990407 0.87955 0.331005
365 3 0.740407 0.87045 0.831006
366 3 0.259593 0.12955 0.168994
367 3 0.509593 0.12045 0.668995
368 3 0.990407 0.37955 0.331006
369 3 0.205756 0.417935 0.874683
370 3 0.794244 0.582065 0.125317
371 3 0.0442436 0.667935 0.625316
372 3 0.455756 0.832065 0.374684
373 3 0.205756 0.917935 0.874683
374 3 0.794244 0.0820653 0.125317
375 3 0.0442436 0.167935 0.625316
376 3 0.455756 0.332065 0.374683
377 3 0.705756 0.417935 0.874684
378 3 0.294244 0.582065 0.125316
379 3 0.544244 0.667935 0.625317
380 3 0.955756 0.832065 0.374684
381 3 0.705756 0.917935 0.874683
382 3 0.294244 0.0820654 0.125316
383 3 0.544244 0.167935 0.625316
384 3 0.955756 0.332065 0.374683
385 4 0.00944087 0.30835 0.727664
386 4 0.990559 0.69165 0.272336
387 4 0.240559 0.55835 0.772337
388 4 0.259441 0.94165 0.227664
389 4 0.00944097 0.80835 0.727664
390 4 0.990559 0.19165 0.272336
391 4 0.240559 0.0583504 0.772337
392 4 0.259441 0.44165 0.227664
393 4 0.509441 0.30835 0.727664
394 4 0.490559 0.69165 0.272336
395 4 0.740559 0.55835 0.772336
396 4 0.759441 0.94165 0.227663
397 4 0.509441 0.80835 0.727664
398 4 0.490559 0.19165 0.272336
399 4 0.740559 0.0583504 0.772337
400 4 0.759441 0.44165 0.227664
401 4 0.0662105 0.298902 0.898901
402 4 0.933789 0.701098 0.101099
403 4 0.18379 0.548902 0.601098
404 4 0.316211 0.951098 0.398901
405 4 0.0662105 0.798902 0.898901
406 4 0.933789 0.201098 0.101099
407 4 0.18379 0.048902 0.601098
408 4 0.316211 0.451098 0.398901
409 4 0.566211 0.298902 0.898901
410 4 0.433789 0.701098 0.101099
411 4 0.683789 0.548902 0.601099
412 4 0.816211 0.951098 0.398902
413 4 0.566211 0.798902 0.898901
414 4 0.433789 0.201098 0.101099
415 4 0.683789 0.048902 0.601098
416 4 0.816211 0.451098 0.398901
417 4 0.183411 0.214352 0.491826
418 4 0.816589 0.785648 0.508174
419 4 0.0665885 0.464351 0.00817428
420 4 0.433411 0.0356486 0.991826
421 4 0.183411 0.714352 0.491826
422 4 0.816589 0.285649 0.508174
423 4 0.0665885 0.964351 0.00817427
424 4 0.433411 0.535649 0.991826
425 4 0.683411 0.214351 0.491826
426 4 0.316589 0.785649 0.508174
427 4 0.566589 0.464351 0.00817405
428 4 0.933412 0.0356488 0.991826
429 4 0.683411 0.714351 0.491826
430 4 0.316589 0.285649 0.508174
431 4 0.566588 0.964351 0.00817425
432 4 0.933411 0.535648 0.991826
433 4 0.0878059 0.274971 0.474881
434 4 0.912194 0.725029 0.525119
435 4 0.162194 0.524972 0.0251188
436 4 0.337806 0.975029 0.974881
437 4 0.0878061 0.774971 0.474882
438 4 0.912194 0.225029 0.525119
439 4 0.162194 0.0249715 0.0251188
440 4 0.337806 0.475029 0.974881
441 4 0.587806 0.274971 0.474881
442 4 0.412194 0.725029 0.525119
443 4 0.662194 0.524971 0.0251186
444 4 0.837806 0.975028 0.974881
445 4 0.587806 0.774971 0.474881
446 4 0.412194 0.225029 0.525119
447 4 0.662194 0.0249715 0.0251188
448 4 0.837806 0.475029 0.974882
449 4 0.190623 0.162434 0.727812
450 4 0.809377 0.837566 0.272188
451 4 0.0593768 0.412434 0.772188
452 4 0.440623 0.0875656 0.227812
453 4 0.190623 0.662434 0.727812
454 4 0.809377 0.337566 0.272188
455 4 0.0593768 0.912434 0.772188
456 4 0.440623 0.587566 0.227812
457 4 0.690623 0.162434 0.727812
458 4 0.309377 0.837566 0.272188
459 4 0.559377 0.412434 0.772188
460 4 0.940623 0.0875656 0.227812
461 4 0.690623 0.662434 0.727812
462 4 0.309377 0.337566 0.272188
463 4 0.559377 0.912434 0.772188
464 4 0.940623 0.587566 0.227812
465 4 0.202867 0.189043 0.891615
466 4 0.797133 0.810957 0.108385
467 4 0.0471334 0.439043 0.608385
468 4 0.452867 0.0609568 0.391615
469 4 0.202867 0.689043 0.891615
470 4 0.797133 0.310957 0.108385
471 4 0.0471334 0.939043 0.608385
472 4 0.452867 0.560957 0.391615
473 4 0.702867 0.189043 0.891615
474 4 0.297133 0.810957 0.108385
475 4 0.547133 0.439043 0.608385
476 4 0.952867 0.0609568 0.391615
477 4 0.702867 0.689043 0.891615
478 4 0.297133 0.310957 0.108385
479 4 0.547133 0.939043 0.608385
480 4 0.952867 0.560957 0.391615
481 4 0.430404 0.389336 0.856701
482 4 0.569596 0.610664 0.143299
483 4 0.819596 0.639336 0.643299
484 4 0.680404 0.860664 0.356701
485 4 0.430404 0.889336 0.856701
486 4 0.569596 0.110664 0.143299
487 4 0.819596 0.139336 0.643299
488 4 0.680404 0.360664 0.356701
489 4 0.930404 0.389336 0.856701
490 4 0.0695957 0.610664 0.143299
491 4 0.319596 0.639336 0.643299
492 4 0.180404 0.860664 0.356701
493 4 0.930404 0.889336 0.856701
494 4 0.0695957 0.110664 0.143299
495 4 0.319596 0.139336 0.643299
496 4 0.180404 0.360664 0.356701
497 4 0.399967 0.357119 0.996299
498 4 0.600033 0.642881 0.00370095
499 4 0.850033 0.607119 0.503701
500 4 0.649967 0.892881 0.496299
501 4 0.399967 0.857119 0.996299
502 4 0.600033 0.142881 0.00370096
503 4 0.850033 0.107119 0.503701
504 4 0.649967 0.392881 0.496299
505 4 0.899967 0.357119 0.996299
506 4 0.100033 0.642881 0.00370097
507 4 0.350033 0.607119 0.503701
508 4 0.149967 0.892881 0.496299
509 4 0.899967 0.857119 0.996299
510 4 0.100033 0.142881 0.00370099
511 4 0.350033 0.107119 0.503701
512 4 0.149967 0.392881 0.496299
513 4 0.298955 0.450264 0.643616
514 4 0.701045 0.549736 0.356384
515 4 0.951045 0.700264 0.856384
516 4 0.548955 0.799736 0.143616
517 4 0.298955 0.950264 0.643616
518 4 0.701045 0.0497361 0.356384
519 4 0.951045 0.200264 0.856384
520 4 0.548955 0.299736 0.143616
521 4 0.798955 0.450264 0.643616
522 4 0.201045 0.549736 0.356384
523 4 0.451045 0.700264 0.856384
524 4 0.0489548 0.799736 0.143616
525 4 0.798955 0.950264 0.643616
526 4 0.201045 0.0497361 0.356384
527 4 0.451045 0.200264 0.856384
528 4 0.0489547 0.299736 0.143616
529 4 0.389062 0.39515 0.614207
530 4 0.610938 0.60485 0.385793
531 4 0.860938 0.64515 0.885793
532 4 0.639062 0.85485 0.114207
533 4 0.389062 0.89515 0.614207
534 4 0.610938 0.10485 0.385793
535 4 0.860938 0.14515 0.885793
536 4 0.639062 0.35485 0.114207
537 4 0.889062 0.39515 0.614207
538 4 0.110938 0.60485 0.385793
539 4 0.360938 0.64515 0.885793
540 4 0.139062 0.85485 0.114207
541 4 0.889062 0.89515 0.614207
542 4 0.110938 0.10485 0.385793
543 4 0.360938 0.14515 0.885793
544 4 0.139062 0.35485 0.114207
545 4 0.196658 0.46214 0.824959
546 4 0.803342 0.53786 0.175041
547 4 0.0533423 0.71214 0.675041
548 4 0.446658 0.78786 0.324959
549 4 0.196658 0.96214 0.824959
550 4 0.803342 0.0378601 0.175041
551 4 0.0533423 0.21214 0.675041
552 4 0.446658 0.28786 0.324959
553 4 0.696658 0.46214 0.824959
554 4 0.303342 0.53786 0.175041
555 4 0.553342 0.71214 0.675041
556 4 0.946658 0.78786 0.324959
557 4 0.696658 0.96214 0.824959
558 4 0.303342 0.0378601 0.175041
559 4 0.553342 0.21214 0.675041
560 4 0.946658 0.28786 0.324959
561 4 0.198089 0.41456 0.966609
562 4 0.801911 0.58544 0.0333907
563 4 0.0519109 0.66456 0.533391
564 4 0.448089 0.83544 0.466609
565 4 0.198089 0.914559 0.966609
566 4 0.801911 0.0854405 0.0333907
567 4 0.0519109 0.16456 0.533391
568 4 0.448089 0.33544 0.466609
569 4 0.698089 0.41456 0.966609
570 4 0.301911 0.58544 0.0333907
571 4 0.551911 0.66456 0.533391
572 4 0.948089 0.83544 0.466609
573 4 0.698089 0.91456 0.966609
574 4 0.301911 0.0854404 0.0333907
575 4 0.551911 0.16456 0.533391
576 4 0.948089 0.335441 0.466609
ITEM: TIMESTEP
1000
ITEM: NUMBER OF ATOMS
576
ITEM: BOX BOUNDS xy xz yz pp pp pp
-4.3504748667049915e+00 1.8125850253383266e+01 4.2673798800086121e-01
-2.8550554733348044e-01 2.5470763646265194e+01 -4.3553630743225975e+00
1.3245612600436552e-02 1.2800081070099612e+01 7.3258587231753047e-02
ITEM: ATOMS id type xs ys zs
1 1 0.248571 0.315747 0.858839
2 1 0.746758 0.664306 0.128911
3 1 0.0298408 0.574409 0.638171
4 1 0.485094 0.931001 0.366163
5 1 0.231737 0.834854 0.877503
6 1 0.764873 0.19509 0.11386
7 1 0.0100058 0.0600386 0.618304
8 1 0.492837 0.430822 0.380838
9 1 0.725687 0.328656 0.882481
10 1 0.266876 0.690444 0.124985
11 1 0.515292 0.573565 0.633443
12 1 0.974945 0.915084 0.383204
13 1 0.735766 0.822071 0.882366
14 1 0.25181 0.174344 0.120395
15 1 0.511127 0.0814796 0.609204
16 1 0.00937591 0.421972 0.397698
17 1 0.164707 0.312999 0.67597
18 1 0.835521 0.681288 0.305284
19 1 0.117528 0.560301 0.813314
20 1 0.39758 0.935108 0.18056
21 1 0.15825 0.826833 0.694378
22 1 0.844036 0.191839 0.294369
23 1 0.0919929 0.0584482 0.799178
24 1 0.40958 0.44361 0.194939
25 1 0.653463 0.319859 0.693244
26 1 0.360099 0.688586 0.298679
27 1 0.596207 0.561718 0.818211
28 1 0.888871 0.928228 0.203175
29 1 0.648247 0.798656 0.708901
30 1 0.334883 0.178267 0.305886
31 1 0.60318 0.0613144 0.788419
32 1 0.91337 0.436872 0.22278
33 1 0.29637 0.26254 0.685988
34 1 0.71471 0.737773 0.289787
35 1 0.00720089 0.498743 0.801194
36 1 0.516301 0.987384 0.178676
37 1 0.281187 0.773439 0.700778
38 1 0.722155 0.24672 0.298175
39 1 0.964818 0.00294731 0.791914
40 1 0.525278 0.499216 0.207887
41 1 0.776957 0.263336 0.715554
42 1 0.244434 0.738152 0.328345
43 1 0.47011 0.512283 0.808685
44 1 0.0117041 0.9788 0.205436
45 1 0.776207 0.746163 0.726186
46 1 0.209627 0.230242 0.298005
47 1 0.476672 0.011952 0.76947
48 1 0.028577 0.487558 0.210624
49 1 0.322611 0.284489 0.862735
50 1 0.675091 0.699229 0.120694
51 1 0.960008 0.534903 0.6316
52 1 0.556833 0.962582 0.356762
53 1 0.307889 0.801327 0.879916
54 1 0.691005 0.229592 0.115165
55 1 0.93347 0.0277297 0.614261
56 1 0.561975 0.46716 0.381967
57 1 0.802016 0.289509 0.892369
58 1 0.195765 0.721052 0.143421
59 1 0.440116 0.540188 0.628519
60 1 0.0488869 0.945726 0.380632
61 1 0.809401 0.7854 0.891407
62 1 0.181277 0.20712 0.119051
63 1 0.436675 0.0455951 0.598822
64 1 0.0813204 0.454552 0.389422
65 1 0.342651 0.312809 0.69916
66 1 0.666835 0.688667 0.293822
67 1 0.951908 0.546653 0.80105
68 1 0.565332 0.935541 0.189698
69 1 0.333169 0.822634 0.716817
70 1 0.67106 0.198803 0.272476
71 1 0.916262 0.0567336 0.77846
72 1 0.580624 0.450301 0.218155
73 1 0.824229 0.315338 0.72979
74 1 0.195762 0.686475 0.308959
75 1 0.425157 0.564971 0.794119
76 1 0.0570868 0.925445 0.212016
77 1 0.815464 0.797333 0.718988
78 1 0.158907 0.180374 0.28295
79 1 0.431394 0.0617983 0.770969
80 1 0.0757858 0.436532 0.211803
81 1 0.214773 0.362563 0.694822
82 1 0.782184 0.632875 0.30542
83 1 0.0595694 0.606615 0.81365
84 1 0.448585 0.886343 0.196676
85 1 0.210196 0.87487 0.711693
86 1 0.795538 0.14315 0.277042
87 1 0.0406998 0.106646 0.783679
88 1 0.462708 0.394736 0.20226
89 1 0.701822 0.367594 0.707074
90 1 0.309606 0.639168 0.283626
91 1 0.548893 0.612768 0.801379
92 1 0.936753 0.878143 0.207037
93 1 0.690006 0.849183 0.703274
94 1 0.282274 0.128667 0.281942
95 1 0.558526 0.112333 0.797723
96 1 0.960364 0.386462 0.219423
97 2 0.236699 0.317179 0.935135
98 2 0.753407 0.654076 0.0516562
99 2 0.0294673 0.5885 0.558671
100 2 0.486429 0.929166 0.450283
101 2 0.224301 0.835434 0.961355
102 2 0.770727 0.194935 0.0338702
103 2 0.0228806 0.0634531 0.538483
104 2 0.486949 0.428186 0.460148
105 2 0.719254 0.335342 0.962449
106 2 0.270741 0.69418 0.0430346
107 2 0.52493 0.579362 0.553531
108 2 0.966314 0.912117 0.461826
109 2 0.72823 0.829938 0.961457
110 2 0.257452 0.170912 0.0406203
111 2 0.514894 0.0923748 0.527728
112 2 0.0215535 0.410992 0.482762
113 2 0.102902 0.319186 0.625506
114 2 0.900729 0.675193 0.361523
115 2 0.184414 0.566969 0.859387
116 2 0.333097 0.928802 0.135071
117 2 0.0972051 0.837876 0.644467
118 2 0.906677 0.185331 0.347425
119 2 0.15541 0.0646923 0.851981
120 2 0.345678 0.437718 0.152679
121 2 0.587743 0.326803 0.638252
122 2 0.423464 0.680015 0.345703
123 2 0.661122 0.566192 0.874178
124 2 0.825307 0.92226 0.154955
125 2 0.584419 0.796413 0.663456
126 2 0.397255 0.168922 0.355608
127 2 0.668391 0.0628737 0.831837
128 2 0.847801 0.429019 0.186168
129 2 0.316491 0.235125 0.636153
130 2 0.694199 0.769646 0.329842
131 2 0.992404 0.462515 0.837084
132 2 0.536993 0.0160079 0.131336
133 2 0.306404 0.744038 0.657293
134 2 0.704252 0.270173 0.358448
135 2 0.939632 0.973313 0.8357
136 2 0.542994 0.525073 0.152985
137 2 0.802255 0.231303 0.675483
138 2 0.225977 0.767307 0.384058
139 2 0.439009 0.486663 0.845214
140 2 0.0319279 0.00936548 0.158496
141 2 0.797625 0.710815 0.690798
142 2 0.191146 0.263189 0.339922
143 2 0.454793 0.979379 0.806696
144 2 0.0400641 0.517798 0.159516
145 2 0.361493 0.281154 0.948685
146 2 0.636354 0.705138 0.0397395
147 2 0.920795 0.529503 0.54479
148 2 0.592261 0.983145 0.428481
149 2 0.340742 0.78818 0.958548
150 2 0.666085 0.249539 0.0372229
151 2 0.901228 0.0146702 0.532717
152 2 0.591292 0.476577 0.467619
153 2 0.843711 0.282305 0.977167
154 2 0.156138 0.739022 0.0655144
155 2 0.40698 0.530784 0.542778
156 2 0.0901849 0.953218 0.460972
157 2 0.848197 0.778932 0.979992
158 2 0.148079 0.226865 0.0397556
159 2 0.401028 0.0402471 0.5139
160 2 0.124007 0.464755 0.468291
161 2 0.385971 0.314212 0.654191
162 2 0.616455 0.694709 0.331551
163 2 0.904452 0.536399 0.835824
164 2 0.611468 0.933059 0.150318
165 2 0.385509 0.817095 0.683491
166 2 0.625671 0.195093 0.316796
167 2 0.862127 0.0530406 0.806273
168 2 0.622505 0.45854 0.173232
169 2 0.880784 0.310043 0.70633
170 2 0.154228 0.685947 0.352435
171 2 0.37381 0.560854 0.830222
172 2 0.0997929 0.924511 0.165771
173 2 0.864026 0.794909 0.677454
174 2 0.117392 0.180161 0.330767
175 2 0.38512 0.0603157 0.813716
176 2 0.118354 0.441966 0.164863
177 2 0.178657 0.397473 0.667998
178 2 0.81732 0.597195 0.34791
179 2 0.0963791 0.643899 0.848741
180 2 0.412765 0.85168 0.161264
181 2 0.179507 0.911385 0.668838
182 2 0.829755 0.106663 0.31308
183 2 0.0674388 0.143934 0.819745
184 2 0.432557 0.35969 0.161991
185 2 0.662161 0.401986 0.660861
186 2 0.345565 0.60156 0.308639
187 2 0.585718 0.644688 0.845448
188 2 0.898677 0.843284 0.167949
189 2 0.647977 0.879534 0.649667
190 2 0.31994 0.0940047 0.320045
191 2 0.599868 0.139965 0.851482
192 2 0.920845 0.351484 0.18453
193 3 0.1657 0.290717 0.778449
194 3 0.830538 0.691414 0.19184
195 3 0.110731 0.551 0.697551
196 3 0.404854 0.954979 0.291373
197 3 0.157188 0.807862 0.800381
198 3 0.844663 0.214335 0.186272
199 3 0.0920288 0.0359193 0.69805
200 3 0.410267 0.452972 0.308337
201 3 0.650326 0.305715 0.808761
202 3 0.355102 0.713121 0.197597
203 3 0.591822 0.546328 0.709079
204 3 0.893705 0.943612 0.31477
205 3 0.65652 0.792977 0.828823
206 3 0.336194 0.199642 0.204281
207 3 0.592512 0.053205 0.676606
208 3 0.932786 0.450577 0.350223
209 3 0.0926757 0.304955 0.815154
210 3 0.908988 0.674472 0.176596
211 3 0.182639 0.570388 0.669049
212 3 0.332713 0.94234 0.326001
213 3 0.0815296 0.826779 0.821513
214 3 0.91638 0.196714 0.152654
215 3 0.166239 0.0536131 0.669286
216 3 0.33499 0.430477 0.322896
217 3 0.575516 0.324652 0.829952
218 3 0.426283 0.697048 0.163389
219 3 0.66558 0.559153 0.681562
220 3 0.815475 0.935681 0.337272
221 3 0.581341 0.812786 0.853613
222 3 0.412108 0.18803 0.176352
223 3 0.664252 0.070707 0.645994
224 3 0.861956 0.433636 0.383716
225 3 0.209135 0.270854 0.625149
226 3 0.806828 0.731813 0.345646
227 3 0.0932487 0.509971 0.86081
228 3 0.429199 0.978614 0.122971
229 3 0.195985 0.783497 0.638656
230 3 0.810655 0.234076 0.352075
231 3 0.0480011 0.0131551 0.858265
232 3 0.437948 0.492171 0.148199
233 3 0.69033 0.273255 0.653547
234 3 0.330233 0.726448 0.376654
235 3 0.555671 0.516484 0.86597
236 3 0.923538 0.972565 0.150852
237 3 0.68446 0.751299 0.668368
238 3 0.295164 0.217344 0.364116
239 3 0.565854 0.0144745 0.832284
240 3 0.937325 0.48093 0.167756
241 3 0.155616 0.244211 0.525269
242 3 0.830598 0.733811 0.4648
243 3 0.104593 0.511999 0.979765
244 3 0.402784 0.00569184 0.0148791
245 3 0.168761 0.755368 0.533044
246 3 0.842962 0.257412 0.462136
247 3 0.0680967 0.995453 0.970766
248 3 0.4146 0.494213 0.028514
249 3 0.670533 0.257585 0.536938
250 3 0.357404 0.750691 0.486818
251 3 0.579435 0.490627 0.974189
252 3 0.895695 5.09174e-05 0.0421453
253 3 0.661634 0.74803 0.547911
254 3 0.350273 0.256829 0.438044
255 3 0.590178 0.0138587 0.952329
256 3 0.904671 0.479736 0.0468708
257 3 0.311037 0.235946 0.799893
258 3 0.69396 0.755261 0.17483
259 3 0.984974 0.481838 0.682331
260 3 0.537743 0.0120265 0.292081
261 3 0.293235 0.751084 0.816238
262 3 0.708562 0.275874 0.186758
263 3 0.954309 0.979222 0.677493
264 3 0.543633 0.519155 0.327246
265 3 0.788062 0.239915 0.827779
266 3 0.22417 0.766219 0.216426
267 3 0.457351 0.490149 0.688092
268 3 0.0360777 0.998072 0.318158
269 3 0.791709 0.732181 0.84129
270 3 0.198893 0.255146 0.185619
271 3 0.455636 0.99359 0.649568
272 3 0.0561207 0.50716 0.325785
273 3 0.242309 0.205914 0.817739
274 3 0.758465 0.782489 0.142725
275 3 0.0501611 0.455706 0.647922
276 3 0.475416 0.0501084 0.310292
277 3 0.227755 0.717394 0.829713
278 3 0.777032 0.308498 0.173211
279 3 0.0213541 0.945392 0.660123
280 3 0.476274 0.548625 0.350555
281 3 0.716695 0.208851 0.837271
282 3 0.277853 0.80381 0.182751
283 3 0.523241 0.45763 0.667379
284 3 0.970679 0.032842 0.339874
285 3 0.732763 0.693437 0.869459
286 3 0.268903 0.287285 0.179071
287 3 0.524478 0.959577 0.636435
288 3 0.998085 0.543392 0.355751
289 3 0.385747 0.315658 0.810819
290 3 0.619278 0.678697 0.178169
291 3 0.902197 0.556797 0.687398
292 3 0.614251 0.93262 0.30588
293 3 0.36892 0.82811 0.838936
294 3 0.628675 0.200975 0.151686
295 3 0.876706 0.058832 0.660796
296 3 0.624636 0.442059 0.3325
297 3 0.851241 0.321565 0.846947
298 3 0.143276 0.689264 0.190998
299 3 0.382955 0.570286 0.675113
300 3 0.101307 0.914845 0.328476
301 3 0.866022 0.810728 0.839089
302 3 0.116468 0.179178 0.167091
303 3 0.383278 0.0728893 0.654687
304 3 0.130718 0.428895 0.332028
305 3 0.410794 0.368564 0.863662
306 3 0.576035 0.626862 0.136274
307 3 0.840541 0.594681 0.615622
308 3 0.655055 0.886856 0.377439
309 3 0.402849 0.878435 0.89537
310 3 0.596191 0.149791 0.0981352
311 3 0.841719 0.110112 0.605674
312 3 0.662542 0.393124 0.397722
313 3 0.903261 0.361423 0.917346
314 3 0.10389 0.643739 0.122256
315 3 0.35241 0.624284 0.626512
316 3 0.149253 0.868771 0.396194
317 3 0.891067 0.864628 0.881418
318 3 0.0715674 0.135294 0.0993908
319 3 0.351169 0.125577 0.610414
320 3 0.168012 0.375039 0.373765
321 3 0.279314 0.359567 0.645306
322 3 0.720616 0.645297 0.358198