LAMMPS data file via write_data, version 15 Apr 2020, timestep = 80000

576 atoms
4 atom types

8.5255695720024427e-01 1.6851443515800035e+01 xlo xhi
-1.4129109734421483e+00 2.6524910485141927e+01 ylo yhi
-2.5398486439957324e-01 1.3067311547099902e+01 zlo zhi
-1.2312019503910705e+00 -9.3656260645562994e-01 -5.1098441507237902e-01 xy xz yz

Masses

1 12.0107
2 1.00794
3 14.0067
4 15.9994

Atoms # full

7 1 1 4.9517671156747926e-02 1.5822282292663530e+01 7.9358481985426277e-01 7.3810013211394923e+00 -1 0 0
48 1 1 5.1526197003142524e-02 5.7689411706407212e-01 1.0931030012260679e+01 2.4935196244797373e+00 0 0 0
64 1 1 5.3577992173841557e-02 1.2370426963271288e+00 1.0764841706097759e+01 4.7645151465791624e+00 0 0 0
83 1 1 3.8453323074895962e-02 4.6854169670742085e-01 1.6023925168048894e+01 1.0169750323101393e+01 0 0 0
87 1 1 3.9901363833195425e-02 1.5913313087949959e+01 2.2226252596371121e+00 9.2983840841296210e+00 -1 0 0
103 1 2 2.5409159909594253e-01 1.6032540806636913e+01 7.0304608988115103e-01 6.2970306077661338e+00 -1 0 0
144 1 2 2.5068266516936932e-01 7.3779127910935549e-01 1.1680698274845586e+01 1.5586740426057075e+00 0 0 0
268 1 3 -1.3131502213578927e-01 1.5190005904418291e+01 2.6351514566425678e+01 3.3992770087114761e+00 -1 -1 0
272 1 3 -1.2416989639715298e-01 6.7922203509181345e-01 1.1821291825965398e+01 3.7414140493677048e+00 0 0 0
279 1 3 3.4743796456620751e-01 -6.1748427276217210e-01 2.5947771381990638e+01 8.4125446656323195e+00 0 0 0
336 1 3 -1.2591731152417210e-01 1.2210952583524717e+00 8.5037238480786925e+00 2.2941253162755477e+00 0 0 0
371 1 3 3.1508938355313587e-01 7.6513009814788779e-01 1.7305582684307186e+01 7.8533409919597599e+00 0 0 0
375 1 3 2.9943914856815690e-01 2.2059285522402616e-01 3.3239012277169770e+00 6.9929124857561478e+00 0 0 0
490 1 4 -3.6108854246101552e-01 -5.8264509123950425e-02 1.5548998894172229e+01 2.0753818201357435e+00 0 0 0
494 1 4 -2.4993517604296281e-01 1.6009627778331421e+01 3.7103326953574687e+00 2.4476324404996057e+00 -1 0 0
506 1 4 -2.8365815248934595e-01 4.7996623164013225e-01 1.6648462804399813e+01 2.0238337371188486e-01 0 0 0
524 1 4 -2.3279801454210053e-01 1.0752002084574295e+00 2.0934645536336227e+01 2.1366588530686048e+00 0 0 0
563 1 4 -2.5161740164027635e-01 6.7208073063182883e-01 1.7275178720944581e+01 6.5560571916349302e+00 0 0 0
359 1 3 -1.2478096796671095e-01 1.5503253668993068e+01 2.2427695956741291e+00 7.8317522315777239e+00 -1 0 0
12 1 1 4.2358656015513724e-02 1.4887926797544109e+01 2.4116594687659628e+01 4.8226491474192148e+00 0 0 0
108 1 2 2.5834200075555991e-01 1.4760742858364129e+01 2.4185830057983374e+01 5.9301682302606142e+00 0 0 0
17 1 1 5.1408305056167967e-02 2.5576084381636512e+00 8.3229444690703556e+00 9.9209428693369208e+00 0 0 0
19 1 1 5.5719707034359835e-02 1.4866125658978331e+00 1.4842385818757268e+01 1.0065534824402821e+01 0 0 0
21 1 1 5.3321664891226625e-02 1.6031599119546371e+00 2.1009822849701468e+01 9.4916688606561443e+00 0 0 0
23 1 1 4.8695151432922856e-02 1.0049512681500650e+00 1.1968914774347286e+00 9.4498504760056754e+00 0 0 0
58 1 1 5.9316255427293033e-02 3.0059249709745139e+00 1.7496275644771746e+01 1.2643510728024809e+00 0 0 0
60 1 1 4.1089483179534966e-02 -1.9586948014830141e-01 2.5278104573601585e+01 4.3795896712483016e+00 0 0 0
62 1 1 5.2986380993786775e-02 3.4819815854228855e+00 4.0469122544704952e+00 1.0963998814291449e+00 0 0 0
74 1 1 2.6672021742630839e-02 2.5392186216504422e+00 1.6487552326472965e+01 3.3815791982531502e+00 0 0 0
76 1 1 4.5855989079388516e-02 3.7055973718590285e-01 2.4554797643722964e+01 2.1402610961264621e+00 0 0 0
78 1 1 4.6157141424742129e-02 2.7545781977083319e+00 3.1710370682129705e+00 3.1921096283385504e+00 0 0 0
80 1 1 3.4632442363514135e-02 1.6843673706040587e+00 9.8909352389256764e+00 2.5788836504855110e+00 0 0 0
81 1 1 4.4642140953710219e-02 3.7077900314651209e+00 9.2834272048357853e+00 1.0203461394609006e+01 0 0 0
85 1 1 3.4886634504687861e-02 2.0726808067700242e+00 2.2390026524705672e+01 9.7780553087350697e+00 0 0 0
113 1 2 2.6689822216677767e-01 1.6304115777130246e+00 8.9111370323656800e+00 9.6608076759683552e+00 0 0 0
115 1 2 2.7067980849027318e-01 2.5688300542629374e+00 1.5221725508632339e+01 1.0214507244233614e+01 0 0 0
117 1 2 2.6958114529569327e-01 6.2233853976271936e-01 2.1040692359506988e+01 8.9722721669363015e+00 0 0 0
119 1 2 2.5595847000590632e-01 1.9939810774589246e+00 1.6982851302226205e+00 9.7121362410031633e+00 0 0 0
142 1 2 2.5215571703694456e-01 3.6270500959197824e+00 4.9898835501863772e+00 4.2671678548438647e+00 0 0 0
154 1 2 2.6805694808425640e-01 2.4910592915486189e+00 1.7883812810170173e+01 3.3177050224711191e-01 0 0 0
156 1 2 2.6702992386959384e-01 2.1374177671792427e-01 2.5848386758546877e+01 5.2798374666618573e+00 0 0 0
158 1 2 2.6077557423244896e-01 3.2837531137976161e+00 4.5885958466800307e+00 1.4742498369736345e-01 0 0 0
160 1 2 2.8375528380057202e-01 1.7386973266543948e+00 1.1377555965310577e+01 5.5651750309620640e+00 0 0 0
170 1 2 2.5256087925521220e-01 1.6052103657663768e+00 1.6194266371727782e+01 3.9321335298819893e+00 0 0 0
172 1 2 2.6380403740005826e-01 1.2445131412092170e+00 2.4898383227227619e+01 1.5058471647241871e+00 0 0 0
174 1 2 2.5938087863696146e-01 1.8530585680790082e+00 3.3422536894917991e+00 3.8306832603088248e+00 0 0 0
176 1 2 2.7204322100967976e-01 2.4517918141398045e+00 1.0091482265054745e+01 1.8153470362489470e+00 0 0 0
177 1 2 2.7787078599122883e-01 3.4445840046154417e+00 1.0347481227058648e+01 1.0063988735057134e+01 0 0 0
179 1 2 2.5588629816803726e-01 9.8987108944837376e-01 1.7032491000672483e+01 1.0493642192177921e+01 0 0 0
181 1 2 2.6003835748595538e-01 1.3246320056909946e+00 2.3194045214098178e+01 9.4529833443628135e+00 0 0 0
183 1 2 2.6581137821936940e-01 3.2213706277898452e-01 3.2284364459808241e+00 9.6140136180584470e+00 0 0 0
193 1 3 -1.1830101674249544e-01 2.3501880073402490e+00 7.4663140894765316e+00 1.1356958823482305e+01 0 0 0
195 1 3 -1.3556039814592438e-01 1.6353213596540419e+00 1.4460894074435913e+01 8.5706766572962483e+00 0 0 0
197 1 3 -1.3809192699140055e-01 1.3762376897927893e+00 2.0369113813519519e+01 1.0989218478083274e+01 0 0 0
199 1 3 -1.3642776764509301e-01 1.1697691733200397e+00 5.0613543837889230e-01 7.9437440379846187e+00 0 0 0
209 1 3 3.2326725066236234e-01 1.1850537353672570e+00 8.0907332938936847e+00 1.2131643539608170e+01 0 0 0
211 1 3 3.0915000348679722e-01 2.8144435737196511e+00 1.5165506482172770e+01 7.8343049049767775e+00 0 0 0
213 1 3 3.3782208853922319e-01 -1.1936864031970151e-01 2.0277654602025070e+01 1.1360127411297119e+01 0 0 0
215 1 3 3.1048177420994483e-01 2.3083969730945237e+00 1.2266877669009384e+00 7.1754685107253380e+00 0 0 0
225 1 3 -1.3288338999006763e-01 2.8522662930699920e+00 7.4249532498407511e+00 8.7507287625056325e+00 0 0 0
227 1 3 -1.3221893816541924e-01 1.1529939855960842e+00 1.3611356705408216e+01 1.0890202850484195e+01 0 0 0
229 1 3 -1.0969383582735313e-01 2.6250920931578081e+00 2.0192507433360547e+01 8.6812771935085848e+00 0 0 0
231 1 3 -1.1028065609033944e-01 7.2310249880480360e-01 1.2301253235992049e-01 1.0461056970589754e+01 0 0 0
241 1 3 3.0276065952375597e-01 2.8867036976176590e+00 8.2391098397435041e+00 7.4278275020329136e+00 0 0 0
243 1 3 3.3779292596560123e-01 1.2604142568470444e+00 1.3812419838041688e+01 1.2424842644758195e+01 0 0 0
245 1 3 3.1674785524700494e-01 2.7450017959053579e+00 2.0623964517005607e+01 7.2144187902663104e+00 0 0 0
247 1 3 3.2791572302733041e-01 8.3509297101589419e-01 6.7078482064450018e-01 1.1895199208932473e+01 0 0 0
266 1 3 -1.5394317756826981e-01 2.7565392431457481e+00 1.8658200094937470e+01 2.3211825483235264e+00 0 0 0
270 1 3 -1.2782832455090345e-01 3.9853528798784899e+00 5.0644249220154656e+00 2.1485924927369706e+00 0 0 0
273 1 3 3.7292574966960190e-01 2.7665206415897976e+00 5.0193246174076185e+00 1.0450537101087336e+01 0 0 0
277 1 3 3.7279258966286405e-01 3.0817456125214795e+00 1.8421421356974427e+01 1.0912894086206258e+01 0 0 0
298 1 3 -1.1614624214453345e-01 2.2635398512205431e+00 1.6306199394654605e+01 1.7949117938864507e+00 0 0 0
300 1 3 -1.0548127040858635e-01 9.9689967664230839e-01 2.4669635754172624e+01 3.6095942065649589e+00 0 0 0
302 1 3 -1.2271010965374159e-01 2.2605362777415023e+00 3.3476695951723023e+00 1.7345787434038222e+00 0 0 0
304 1 3 -1.2540044974942846e-01 2.3582736908841451e+00 1.0091086754953361e+01 4.0461990567535615e+00 0 0 0
314 1 3 3.0630103853449292e-01 7.8115538936764695e-01 1.6250403539264124e+01 1.3822895980476864e+00 0 0 0
316 1 3 3.2805198413744951e-01 2.2379757858791853e+00 2.5577496454155959e+01 3.5580966325743266e+00 0 0 0
318 1 3 3.1797906241342572e-01 9.2658484034938859e-01 4.1210615950536251e+00 1.6327818793391411e+00 0 0 0
320 1 3 3.0455414502238071e-01 3.5711596283346818e+00 1.1020561643559184e+01 3.9219533840963887e+00 0 0 0
330 1 3 -1.3938879215108760e-01 3.6158926594447904e+00 1.5532467524926709e+01 3.8710952010339827e+00 0 0 0
346 1 3 3.4395348547741167e-01 3.1695313192467864e+00 1.4076013680659248e+01 3.6165556751346419e+00 0 0 0
348 1 3 3.4186864611021428e-01 1.2215348132218837e+00 2.2202166199189918e+01 1.9799315506824855e+00 0 0 0
350 1 3 3.5971908679274389e-01 2.0321159804605493e+00 7.6451762321153360e-01 3.3019970266831984e+00 0 0 0
352 1 3 3.5975475538781437e-01 2.4157251158259743e+00 7.5761985450602509e+00 2.4607469098344206e+00 0 0 0
369 1 3 3.3817746336436955e-01 3.5050867024235015e+00 1.0132889629658928e+01 1.2565256864097455e+01 0 0 0
373 1 3 3.2835345508344527e-01 8.9082302183806272e-01 2.3382507428618769e+01 1.1900100288685708e+01 0 0 0
385 1 4 -2.5478599851806821e-01 3.9938612794331729e-01 8.9345502955037190e+00 1.1569428900199917e+01 0 0 0
387 1 4 -2.3394883306891376e-01 3.8748061614456284e+00 1.5594715109897361e+01 8.4263903370811732e+00 0 0 0
389 1 4 -2.7012913277014838e-01 1.5087074360308106e+01 2.0021500244472925e+01 1.0350317091273629e+01 -1 0 0
391 1 4 -2.5760377105719606e-01 3.0223762946569686e+00 2.1006973690667778e+00 7.7907964105690386e+00 0 0 0
401 1 4 -2.2394170720118411e-01 1.7998856052745518e+00 8.0502848281386985e+00 -5.0966325797184908e-02 0 0 1
403 1 4 -2.2467886535207413e-01 2.8156987594609277e+00 1.5245517404386643e+01 6.5497711000225927e+00 0 0 0
405 1 4 -1.9997091237685263e-01 -4.6101433029158922e-01 2.0029399657327335e+01 1.2556502742939148e+01 0 0 0
407 1 4 -2.3653847385904939e-01 2.5687707752889488e+00 9.1350205568937826e-01 5.9558469686980837e+00 0 0 0
417 1 4 -2.2958807994802383e-01 2.7292779353114947e+00 7.6031609634924973e+00 6.3096633542332334e+00 0 0 0
419 1 4 -2.7478628617911777e-01 1.5775999156487455e+00 1.3538109231920702e+01 -8.3528321431898200e-02 0 0 1
421 1 4 -2.0900731645555121e-01 3.8331527679310016e+00 2.0563381252334377e+01 6.5526853179452882e+00 0 0 0
423 1 4 -2.2944720491925127e-01 3.6300581902544482e-01 -4.1642724932439146e-02 1.2871211202465908e+01 0 1 0
433 1 4 -2.6247993468009928e-01 2.8217399292305476e+00 9.5152645412550338e+00 7.4660927083635036e+00 0 0 0
435 1 4 -2.8860247254710386e-01 1.9613899011693121e+00 1.4794684624220825e+01 1.2883407396045028e+01 0 0 -1
437 1 4 -2.1718576138583479e-01 1.6697604001000239e+00 2.1083691104955538e+01 6.6428490556354847e+00 0 0 0
439 1 4 -3.1193809541188211e-01 1.7112561018558941e+00 1.5830041972767703e+00 1.2134072758216902e+01 0 0 -1
449 1 4 -2.7236938766524499e-01 2.0483752846862324e+00 4.5173544844003057e+00 9.5124043857489298e+00 0 0 0
451 1 4 -3.0904255718527635e-01 1.5789828420978491e+00 1.1121326498401656e+01 9.2463480432910483e+00 0 0 0
453 1 4 -3.1457916337069691e-01 2.7987005202563249e+00 1.7723549591599536e+01 9.8825356444523429e+00 0 0 0
455 1 4 -1.8036375512311226e-01 2.8929398802061923e-01 2.5804149864525453e+01 9.3250595939142933e+00 0 0 0
465 1 4 -3.3450970796462814e-01 2.4413387850133352e+00 4.9756147038923171e+00 1.1680992229644460e+01 0 0 0
469 1 4 -3.8730642882760569e-01 2.5090451284179456e+00 1.8161882960431573e+01 1.2066778273262319e+01 0 0 0
471 1 4 -3.6880604412968421e-01 -3.5724801973391740e-01 2.5680601882015594e+01 7.1873657095611065e+00 0 0 0
492 1 4 -2.6487908562102924e-01 3.1031865436611890e+00 2.5421467495706803e+01 2.6209815948171014e+00 0 0 0
496 1 4 -2.1664361918172276e-01 4.4734275271740982e+00 1.0788629972622067e+01 3.0290171423215986e+00 0 0 0
508 1 4 -2.3427649495518571e-01 2.4353936702141787e+00 2.6339036224169963e+01 4.5567513467816729e+00 0 0 0
510 1 4 -1.7282431660224279e-01 6.9871502411350184e-01 4.9687364776509870e+00 7.1461324687646233e-01 0 0 0
512 1 4 -1.8278513473775676e-01 3.8343652257276521e+00 1.1781270680852609e+01 4.9373625554833991e+00 0 0 0
522 1 4 -2.0759296302386215e-01 3.6974960557433194e+00 1.3474064588840760e+01 2.6365767854389306e+00 0 0 0
526 1 4 -3.0209998201711113e-01 2.2691911512508769e+00 -2.5688710494562206e-01 2.5560684131922744e+00 0 0 0
528 1 4 -2.9514823259059991e-01 3.5731599454164087e+00 7.9760605148039527e+00 2.1012438895550893e+00 0 0 0
538 1 4 -2.4902549398162277e-01 2.1300737939217869e+00 1.3646655780125368e+01 4.2233835552843688e+00 0 0 0
540 1 4 -3.0030996187800685e-01 2.3939574907210703e+00 2.2703348408255998e+01 2.1488366833158024e+00 0 0 0
542 1 4 -2.9623657015865168e-01 8.8504933892886206e-01 1.0177882892287409e+00 3.8072059723558631e+00 0 0 0
544 1 4 -3.0891988410666976e-01 2.1918447906770306e+00 6.4074547560926121e+00 2.9670508031046832e+00 0 0 0
545 1 4 -2.2126336342824751e-01 3.5242587287783884e+00 1.1354736660425752e+01 1.2209162998059504e+01 0 0 0
547 1 4 -2.2227868593060038e-01 8.3369913785854488e-01 1.8498608409253045e+01 8.3637112178662978e+00 0 0 0
549 1 4 -1.9502093276393812e-01 5.2667126962314681e-01 2.4491457599496322e+01 1.1370137074088762e+01 0 0 0
551 1 4 -1.8457210763989712e-01 5.7333301565104144e-01 4.4513861867979898e+00 7.4975884049808501e+00 0 0 0
561 1 4 -3.0475392026818382e-01 3.6366923769182740e+00 1.0185589120590892e+01 1.3235116776127537e-01 0 0 1
565 1 4 -2.8407875584780118e-01 2.7173839706387470e-01 2.2868418545986604e+01 1.2915575964878927e+01 0 0 0
567 1 4 -2.4229131998150572e-01 1.6171971555315274e+01 3.1782801704510044e+00 5.7084895392763135e+00 -1 0 0
355 1 3 -1.2826149812399035e-01 -1.4055244134589917e-02 1.6244182872023124e+01 8.6126024725164072e+00 0 0 0
1 1 1 4.9725269473039291e-02 3.7096826990181992e+00 7.6132732606601188e+00 1.1932230082540475e+01 0 0 0
5 1 1 6.0259481032882582e-02 2.2487252023796911e+00 2.1211522002946907e+01 1.1879349012568111e+01 0 0 0
10 1 1 6.2864000852443383e-02 4.5709940904427206e+00 1.7190696717487210e+01 1.0803018348512023e+00 0 0 0
14 1 1 4.5916222235002559e-02 4.5672861528481299e+00 2.9824096999017708e+00 7.8452800051730054e-01 0 0 0
33 1 1 5.5200661110093578e-02 4.1408269069794876e+00 6.5930275541267171e+00 8.9315173481900896e+00 0 0 0
37 1 1 4.4226347149744660e-02 3.9702343634021022e+00 2.0314876050279164e+01 9.3886388019538423e+00 0 0 0
42 1 1 4.1957922340099804e-02 2.9150683382463303e+00 1.7921556373437813e+01 3.6351055712272440e+00 0 0 0
46 1 1 5.4753896191729261e-02 3.8357127020344230e+00 4.2249859866083668e+00 3.4783717044226177e+00 0 0 0
90 1 1 4.5199829197064362e-02 4.8977128027533947e+00 1.5966166761768413e+01 3.1692931251850567e+00 0 0 0
94 1 1 5.0399841188573269e-02 4.4027164097278799e+00 1.4685759278024770e+00 2.6494632122365531e+00 0 0 0
97 1 2 2.5114961303927219e-01 3.6466995337532730e+00 7.4392584662154224e+00 1.3029925772457933e+01 0 0 0
101 1 2 2.5274232819794590e-01 1.9744189701316688e+00 2.1157964137110877e+01 1.3006321792719675e+01 0 0 0
106 1 2 2.7124531698351922e-01 4.8044935120595174e+00 1.7256925475797168e+01 -2.2456538709050872e-02 0 0 0
110 1 2 2.5503771380392148e-01 3.7784113734229319e+00 2.3466184513523194e+00 1.3008763847694720e+01 0 0 -1
129 1 2 2.5638842684454366e-01 4.1805227049959530e+00 5.9163811188169086e+00 7.9927951025679977e+00 0 0 0
133 1 2 2.4890211283859223e-01 4.7177940325829981e+00 1.9696456821224668e+01 8.7778568926449676e+00 0 0 0
138 1 2 2.4846947846116144e-01 2.1579447303247674e+00 1.8458810000627842e+01 4.2823735630131958e+00 0 0 0
257 1 3 -1.1447262873927050e-01 4.1205814886949756e+00 5.6540932581749495e+00 1.0162716627660139e+01 0 0 0
261 1 3 -1.2667980267434917e-01 4.0475645294984037e+00 1.9588869887723749e+01 1.0811784157872360e+01 0 0 0
282 1 3 3.8172029749432579e-01 3.6403828410207675e+00 1.9898565723337168e+01 2.1447583521680476e+00 0 0 0
286 1 3 3.5919565700473333e-01 5.3450767324051434e+00 5.7384969981314198e+00 1.8863035828385546e+00 0 0 0
321 1 3 -1.3118744770742327e-01 4.8902887396401269e+00 9.0272159702192418e+00 9.1421278243943256e+00 0 0 0
325 1 3 -1.2659291611134010e-01 3.3900442033786344e+00 2.2773878310732655e+01 9.0574556411572491e+00 0 0 0
334 1 3 -1.3210931263351572e-01 3.1981834071710979e+00 1.7519797222246183e+00 3.5564887600463817e+00 0 0 0
353 1 3 -1.3305925413634676e-01 4.1671452674336882e+00 9.1053293872398111e+00 1.1622229975339563e+01 0 0 0
357 1 3 -1.2221677930980165e-01 2.1361327116668711e+00 2.2644046323190359e+01 1.1368911290085066e+01 0 0 0
362 1 3 -1.1252404942203494e-01 4.9032816336812459e+00 1.5771206369204418e+01 1.5730675784962140e+00 0 0 0
366 1 3 -1.2494133443140432e-01 4.0165231750791222e+00 1.5939082494176944e+00 1.1139496011552679e+00 0 0 0
378 1 3 3.4939386533049915e-01 6.2115511069837179e+00 1.5171063311229691e+01 1.0534909358192313e+00 0 0 0
382 1 3 3.2731206052052625e-01 4.7454363306194818e+00 4.8063340469601967e-01 3.5444585959182329e-01 0 0 0
388 1 4 -2.3445588567664294e-01 2.8923000997450137e+00 2.3582009722961544e+01 4.8312994270316993e+00 0 0 0
392 1 4 -2.3747211630950327e-01 5.3641388956108189e+00 8.4925619968212516e+00 5.1742203519977021e+00 0 0 0
474 1 4 -3.7535187578419238e-01 4.1836469187090914e+00 2.0090444777708910e+01 1.0102545505321638e+00 0 0 0
491 1 4 -2.6746448373199871e-01 3.8803709755051403e+00 1.3125136317085589e+01 9.8438146280984338e+00 0 0 0
495 1 4 -2.3845330940131002e-01 3.5370287653996355e+00 -7.4454871129747247e-02 9.9948153435990310e+00 0 0 0
517 1 4 -1.8192688924327383e-01 2.9441901951322285e+00 2.5138169536819600e+01 9.7261931397970987e+00 0 0 0
554 1 4 -2.4797017773180774e-01 7.1199398565337528e+00 1.4775159743089624e+01 1.9008108341321637e+00 0 0 0
570 1 4 -2.7874482207844686e-01 6.3461309084769528e+00 1.5054808138936810e+01 -2.0573040182023594e-01 0 0 0
574 1 4 -3.1383883348457708e-01 4.4837105873911316e+00 2.8740397368843529e-01 1.2601647109981984e+01 0 0 -1
20 1 1 5.9701886514733245e-02 5.2994607884768765e+00 2.3631204345875798e+01 3.1854757390112973e+00 0 0 0
24 1 1 5.3389466112118006e-02 7.2431469663494026e+00 9.4684479053368165e+00 3.2973652332675671e+00 0 0 0
26 1 1 3.3633018088115092e-02 5.3262808710585245e+00 1.7385914659881102e+01 3.4298108673791945e+00 0 0 0
30 1 1 5.0926422011192997e-02 5.5117911986836328e+00 2.4527419050647321e+00 2.9974928854831151e+00 0 0 0
49 1 1 6.3675626845597341e-02 4.6894273162897342e+00 6.5217877612619883e+00 1.1288850630230009e+01 0 0 0
53 1 1 5.8866636177321505e-02 3.7307616876805887e+00 2.0755848360232473e+01 1.1755011827692531e+01 0 0 0
59 1 1 4.3349803342792197e-02 7.1020597224217852e+00 1.3845199736452109e+01 8.2086129753352157e+00 0 0 0
65 1 1 5.3994813061314595e-02 5.2737084597162740e+00 7.5833647705384433e+00 9.1875498983188972e+00 0 0 0
69 1 1 4.0267602580422793e-02 4.4009703784434429e+00 2.1757850574913004e+01 9.5218968299965887e+00 0 0 0
75 1 1 6.2717243115996801e-02 6.3982945324294711e+00 1.4258268168637994e+01 1.0503631979393901e+01 0 0 0
79 1 1 4.3762586210330717e-02 6.2530735769639554e+00 8.9301778449101255e-01 1.0205694122088396e+01 0 0 0
84 1 1 3.4196131420584981e-02 6.3895450479053242e+00 2.2531779088086203e+01 3.2822484149124955e+00 0 0 0
116 1 2 2.7355258359632045e-01 4.2558015984923481e+00 2.3197886242292256e+01 2.9561278018856099e+00 0 0 0
120 1 2 2.6641819519085047e-01 6.2737135568005744e+00 8.9641024440728359e+00 2.9446138545976530e+00 0 0 0
122 1 2 2.6578540403018669e-01 6.3795262072324315e+00 1.7382982530298829e+01 3.7883057611273676e+00 0 0 0
126 1 2 2.7081694340181894e-01 6.5108319349005814e+00 2.0297286218053765e+00 3.2847684800247610e+00 0 0 0
143 1 2 2.4864622149604257e-01 7.1442967137941258e+00 -9.4259280369692200e-01 1.1184096327757995e+01 0 1 0
145 1 2 2.6532946113972772e-01 5.1161107248596327e+00 5.8733651972498802e+00 1.2135869694663334e+01 0 0 0
149 1 2 2.7187847025199974e-01 4.0562278834818200e+00 2.0518359652095430e+01 1.2811753362396916e+01 0 0 0
155 1 2 2.6191144506699487e-01 6.7324111409671623e+00 1.3400435038626005e+01 7.2195285734500469e+00 0 0 0
159 1 2 2.7994393335781531e-01 6.1292839116889137e+00 -6.3623057021994056e-01 7.1546434414597977e+00 0 0 0
161 1 2 2.8164920942644833e-01 6.1306758013291436e+00 7.5456385322424389e+00 8.4180719953760050e+00 0 0 0
165 1 2 2.5194122137862990e-01 5.3993713583261291e+00 2.2050398553169455e+01 9.0422185836903957e+00 0 0 0
171 1 2 2.7857192898658700e-01 5.5559410667872129e+00 1.3898569878423693e+01 1.1192587670199149e+01 0 0 0
175 1 2 2.7244962473175371e-01 5.5163158855820384e+00 8.2712597104017949e-01 1.1068393299034211e+01 0 0 0
180 1 2 2.6239862116265966e-01 6.0602819833097694e+00 2.1481012666797117e+01 3.1527639564777661e+00 0 0 0
184 1 2 2.6321051190927613e-01 8.1062682547082971e+00 7.4064760301736552e+00 3.2833787478087029e+00 0 0 0
186 1 2 2.4175800337531239e-01 5.6180265151407482e+00 1.5247182630933075e+01 3.6878376380356448e+00 0 0 0
190 1 2 2.7324112364772046e-01 4.7265605500594692e+00 4.0309888806453475e-01 2.8642596583737525e+00 0 0 0
196 1 3 -1.5829183958924983e-01 5.2231297107011851e+00 2.4224359454155231e+01 4.6407109553523895e+00 0 0 0
200 1 3 -1.2082167435731733e-01 7.0875327048242402e+00 1.0169285929252665e+01 4.7320871044158697e+00 0 0 0
202 1 3 -1.3409298267205921e-01 5.4305831466852945e+00 1.8081016145952887e+01 1.8708397026925616e+00 0 0 0
206 1 3 -1.3202810534088494e-01 5.8454385381641201e+00 3.1850621481117400e+00 1.5428991084951624e+00 0 0 0
212 1 3 3.2234163668630061e-01 4.0265595001989238e+00 2.3631989440215200e+01 5.4275625673544345e+00 0 0 0
216 1 3 3.1534507135869566e-01 6.0241124201686880e+00 9.5348162948367445e+00 5.6021502739067666e+00 0 0 0
218 1 3 3.3437971705571479e-01 6.8719412501858539e+00 1.8129845629035330e+01 1.3192524261490115e+00 0 0 0
222 1 3 3.2227057807353710e-01 7.1114286324633955e+00 2.6613482319428590e+00 8.2902063361650646e-01 0 0 0
228 1 3 -1.2251248041592369e-01 5.6170006339260228e+00 2.4729978244900089e+01 2.1793046284715469e+00 0 0 0
232 1 3 -1.1707876482105237e-01 7.4798029387820515e+00 1.0533390441760366e+01 2.2143019837471383e+00 0 0 0
234 1 3 -1.0380561460129399e-01 4.3726249828895458e+00 1.8134630478257009e+01 4.2796223991705284e+00 0 0 0
238 1 3 -1.4540383296705067e-01 5.1226698668016217e+00 3.5460560903834599e+00 3.9301657191945791e+00 0 0 0
244 1 3 3.3713023984470480e-01 5.5213692681529682e+00 2.4279004027293556e+01 6.9776599323367205e-01 0 0 0
248 1 3 3.1870922692331044e-01 7.4440539769189815e+00 9.9568427041584346e+00 7.8892653409894353e-01 0 0 0
250 1 3 3.2745830906652779e-01 4.4563122376611659e+00 1.7677484826520356e+01 5.7448246905853138e+00 0 0 0
254 1 3 3.4810125233177502e-01 5.2187017861450329e+00 3.1323519744020967e+00 5.3992929109343830e+00 0 0 0
267 1 3 -1.3132673529281530e-01 7.6644167906674303e+00 1.2609588256188266e+01 9.0887461311858040e+00 0 0 0
280 1 3 3.3936954720583823e-01 7.4835038115922394e+00 1.2624434702304837e+01 4.2036725404269895e+00 0 0 0
289 1 3 -1.3010758275368925e-01 5.8440249893692959e+00 7.2327546895841301e+00 1.0654104326636467e+01 0 0 0
293 1 3 -1.3218100774487815e-01 4.5875559153979006e+00 2.1895304181476636e+01 1.1121468629141468e+01 0 0 0
299 1 3 -1.2142573926401393e-01 5.8775269222687738e+00 1.4215682414879669e+01 9.0091172224540799e+00 0 0 0
303 1 3 -1.2819834921228787e-01 5.5641743571287199e+00 6.4533408943356996e-01 8.8131791651483429e+00 0 0 0
305 1 3 3.2083113899036314e-01 7.1700038673631639e+00 6.4478872815752490e+00 1.0473555332459398e+01 0 0 0
309 1 3 3.5307016899380544e-01 6.0626879363529316e+00 2.1963232519656906e+01 1.1483844916920408e+01 0 0 0
315 1 3 3.1897268033855736e-01 4.7333077160030790e+00 1.3221377955076623e+01 8.8951713034033784e+00 0 0 0
319 1 3 3.1799241994675792e-01 4.2965365682812369e+00 -2.1109753129159992e-01 8.9762148737162342e+00 0 0 0
323 1 3 -1.2806023397638627e-01 -6.5873375280372570e-01 1.5679155539754728e+01 1.1106246678156518e+01 1 0 0
335 1 3 -1.3506047227764639e-01 6.8620498325591406e+00 2.2621423833538983e+00 1.0472510261851603e+01 0 0 0
337 1 3 3.6193974403790702e-01 6.0945253875159384e+00 9.9306217513211337e+00 9.4522443157859914e+00 0 0 0
341 1 3 3.2829222875202746e-01 3.7992554526804394e+00 2.4220585696057849e+01 9.4008714443819326e+00 0 0 0
347 1 3 3.5290209446103576e-01 5.5381228252291725e+00 1.6548554661784216e+01 1.1004992589711440e+01 0 0 0
351 1 3 3.4575114650841199e-01 5.8047265816740463e+00 3.3387798639982629e+00 1.0189463762253276e+01 0 0 0
372 1 3 3.3097587262361594e-01 6.1735382801178424e+00 2.1337353332801303e+01 5.5213695934431284e+00 0 0 0
376 1 3 3.0818763035701946e-01 8.2525213537957516e+00 7.4354906737396114e+00 5.7276782825485633e+00 0 0 0
394 1 4 -2.6579543547535761e-01 7.8648119626930884e+00 1.7931974866516086e+01 2.1318320692615611e+00 0 0 0
398 1 4 -2.4203650067640303e-01 7.9820867156606088e+00 1.9871537240978507e+00 1.4875067645517341e+00 0 0 0
404 1 4 -2.5018740933975775e-01 4.1321995845412003e+00 2.3527144510246803e+01 6.6945233762644714e+00 0 0 0
408 1 4 -2.2102600745758486e-01 5.7373587917919382e+00 1.0008704285265960e+01 6.7522220049928361e+00 0 0 0
410 1 4 -2.3464938109741540e-01 7.0043529334502317e+00 1.8070031510452562e+01 5.1040822425298504e-02 0 0 0
414 1 4 -2.4274043750727559e-01 6.4305063107237093e+00 2.4192316881765454e+00 1.2924660886934355e+01 0 0 -1
420 1 4 -2.4712375365650407e-01 5.8832900779185504e+00 2.5082859888391816e+01 -2.3316251208555602e-01 0 -1 0
424 1 4 -2.3073651891102498e-01 7.7304121771101002e+00 1.0769076865735896e+01 -1.6434065721622176e-01 0 0 0
426 1 4 -2.1713614487074767e-01 3.5595094301353916e+00 1.8101822919130210e+01 6.5442698658207519e+00 0 0 0
430 1 4 -2.5518697839860177e-01 4.8602236499370619e+00 4.0040289620411347e+00 6.2817577236791466e+00 0 0 0
436 1 4 -3.2358767642636022e-01 5.0115062548206648e+00 2.3158121216526155e+01 4.0237949794408789e-01 0 0 1
440 1 4 -2.8877900751829216e-01 6.7850356843104294e+00 8.8698182511805044e+00 5.5938182710890194e-01 0 0 1
442 1 4 -2.5219662975155094e-01 5.4769267019095782e+00 1.7060457948771269e+01 6.2189633122649921e+00 0 0 0
446 1 4 -2.7491908288479083e-01 5.6986393000795390e+00 1.9874890359377888e+00 5.6820352278580684e+00 0 0 0
452 1 4 -3.2632333743055802e-01 6.6486929668370793e+00 -3.3095398312266155e-01 3.1564298452956514e+00 0 0 0
456 1 4 -1.9430651276097291e-01 6.5483045668414661e+00 1.2483427344091025e+01 3.3102326481124051e+00 0 0 0
458 1 4 -2.9069999276256003e-01 4.0783104492305142e+00 2.0541031354991233e+01 3.2013881604216308e+00 0 0 0
462 1 4 -2.7513894161042085e-01 5.8560507560957396e+00 6.5172908679026857e+00 2.7692051013937560e+00 0 0 0
472 1 4 -3.3383772526416927e-01 7.1511885658735572e+00 1.2705331925408434e+01 5.4608895691672785e+00 0 0 0
478 1 4 -3.2192653791938519e-01 5.8661301714632819e+00 5.6143374262573920e+00 7.1018686042246193e-01 0 0 0
481 1 4 -2.5449955930793383e-01 7.7890812446444242e+00 6.6409759587640274e+00 9.3442407071628679e+00 0 0 0
485 1 4 -3.7322548062581840e-01 6.9094530637730394e+00 2.2506048462544140e+01 1.0679076285270673e+01 0 0 0
497 1 4 -2.0184994297740214e-01 7.5964437073126163e+00 5.6763904647214067e+00 1.1393955556625915e+01 0 0 0
501 1 4 -2.2079919491634958e-01 6.3830348182813337e+00 2.1725015071995337e+01 1.2702795458489678e+01 0 0 0
507 1 4 -1.8354642465707069e-01 4.4518312425183497e+00 1.2788828221281221e+01 7.7011104700936563e+00 0 0 0
511 1 4 -2.0294945819465299e-01 4.0035966291575962e+00 -9.1893526623368071e-01 7.9360080161394748e+00 0 0 0
513 1 4 -3.1261333335767705e-01 5.8399828251047445e+00 1.1116949912814766e+01 9.8521725110650014e+00 0 0 0
523 1 4 -2.4519181007808230e-01 5.6704954537782832e+00 1.7819022596699298e+01 1.1084747015100154e+01 0 0 0
527 1 4 -2.7872114218187383e-01 6.0641038585231115e+00 4.4660500729682244e+00 9.5955048555717060e+00 0 0 0
529 1 4 -2.9825087388917138e-01 7.2779108990089698e+00 9.5327929341354114e+00 9.1071608964753903e+00 0 0 0
533 1 4 -2.5889916511821726e-01 5.0110050494507803e+00 2.4576325721285290e+01 9.2968228981184620e+00 0 0 0
539 1 4 -3.1163144012375299e-01 4.3784489492274075e+00 1.6023275856608919e+01 1.1191477955995049e+01 0 0 0
543 1 4 -3.1065007605653649e-01 4.6489308415682311e+00 3.1891161028258912e+00 1.0716985994268045e+01 0 0 0
548 1 4 -2.3534592729337289e-01 6.0149374941370795e+00 2.0199419094308471e+01 4.9340143182828928e+00 0 0 0
558 1 4 -1.9419408258873666e-01 4.4516478349492861e+00 -7.2222063710125239e-01 6.3930846799772134e-01 0 0 0
568 1 4 -2.6674824101136035e-01 7.5488370309845463e+00 7.6992601455447307e+00 6.7607789954795807e+00 0 0 0
364 1 3 -1.3578676235051346e-01 1.5386693260178754e+01 2.2780496181929642e+01 4.3291618901266391e+00 0 0 0
4 1 1 5.6717299092889716e-02 6.5734237033987757e+00 2.3873293391347168e+01 5.1845865417085326e+00 0 0 0
8 1 1 5.5132734656668847e-02 8.4673252583178957e+00 9.9660934080554657e+00 5.3977410165995376e+00 0 0 0
11 1 1 5.1921281977914846e-02 8.0450723138901221e+00 1.5000247482016579e+01 7.9013237459390524e+00 0 0 0
15 1 1 5.5370768865775827e-02 7.7814765793574354e+00 9.2259912272758804e-01 7.5611679951097548e+00 0 0 0
36 1 1 4.7840737487416372e-02 7.0538451388412247e+00 2.5253086277709816e+01 2.4190127004711415e+00 0 0 0
40 1 1 4.9406599423976905e-02 8.8125354164194540e+00 1.1210026844819259e+01 2.5431630088100885e+00 0 0 0
43 1 1 5.6770723259604527e-02 7.6091252919246815e+00 1.3215311970291886e+01 1.0473664425279578e+01 0 0 0
47 1 1 4.6380628957798556e-02 7.3679916565073196e+00 -1.6129158871860949e-01 1.0359584472230544e+01 0 0 0
56 1 1 6.0237005095969201e-02 9.4477018712007013e+00 1.1067492164679287e+01 4.8682748328564740e+00 0 0 0
63 1 1 6.3224586786478451e-02 6.6559240379156082e+00 -1.1274688083661033e-01 8.0231254666039131e+00 0 0 0