LAMMPS data file via write_data, version 15 Apr 2020, timestep = 0

4032 atoms
8 atom types

0.0000000000000000e+00 1.0000000000000000e+02 xlo xhi
0.0000000000000000e+00 1.0000000000000000e+02 ylo yhi
0.0000000000000000e+00 1.0000000000000000e+02 zlo zhi

Masses

1 1.00794
2 1
3 1
4 1
5 1
6 12.0107
7 14.0067
8 15.9994

Atoms # full

12 1 7 -2.0924237515238880e-01 3.0416998884259822e+01 5.8027112855536167e+01 3.0503199587022134e+01 0 0 0
15 1 7 3.2491540718477507e-01 2.9181667594427637e+01 5.8934377536543039e+01 3.0326349560686161e+01 0 0 0
20 1 8 -2.1975857135255694e-01 2.8055464511165493e+01 5.8592500401774878e+01 3.0838447900483029e+01 0 0 0
21 1 8 -2.4061384477348036e-01 2.9287090357350895e+01 5.9996041011570931e+01 2.9610118032357033e+01 0 0 0
3 1 6 -8.2623557976920312e-03 3.1658480752101688e+01 5.8865990028934014e+01 3.0392876576598070e+01 0 0 0
8 1 1 2.0624475227060754e-01 3.2497386068794924e+01 5.8169764374257873e+01 3.0081902716045377e+01 0 0 0
9 1 1 2.3901978809874552e-01 3.1617518256901025e+01 5.9637093341449678e+01 2.9567080150117647e+01 0 0 0
16 1 8 -3.6396824658763222e-01 3.2820597396212378e+01 6.1593332580110150e+01 3.0678634475059404e+01 0 0 0
107 1 6 -1.0058585644916801e-02 3.6907123834896424e+01 5.7236141049880160e+01 2.9854404794381932e+01 0 0 0
111 1 1 2.2539814597836161e-01 3.5865557346418377e+01 5.6824796329690145e+01 2.9709325094183836e+01 0 0 0
116 1 7 -2.0734613363805116e-01 3.7493985580751684e+01 5.7740423029631337e+01 2.8564037017806708e+01 0 0 0
117 1 7 -1.8969995118089564e-01 3.7000220883028383e+01 5.8044661581486245e+01 3.1129973987754941e+01 0 0 0
119 1 7 3.4238191866115059e-01 3.6432494959153267e+01 5.8517133923750144e+01 2.7760439842451056e+01 0 0 0
123 1 8 -2.6728802869433960e-01 3.5202117386221737e+01 5.8156472686294101e+01 2.7807975262089563e+01 0 0 0
124 1 8 -2.5239911077282723e-01 3.6808270010340912e+01 5.9489549659841877e+01 2.7011522693836721e+01 0 0 0
125 1 8 -3.6198348245985079e-01 3.4638346819449147e+01 5.8601485084284050e+01 3.0812172836783542e+01 0 0 0
49 1 1 2.6606309977544557e-01 4.1626195321790043e+01 6.2115910489886950e+01 3.0091866540621918e+01 0 0 0
106 1 6 -1.2967861596556012e-02 3.8717404255629994e+01 5.8597249682908107e+01 2.8735619533338021e+01 0 0 0
108 1 6 -5.3517433758864478e-03 3.8249895212690035e+01 5.8876472563786713e+01 3.1252792190319624e+01 0 0 0
109 1 1 1.7694007295628805e-01 3.9592732802749154e+01 5.7894833182106382e+01 2.8895277296038390e+01 0 0 0
110 1 1 2.3113666115084749e-01 3.8997184666513590e+01 5.9180043382265552e+01 2.7807805721833326e+01 0 0 0
112 1 1 1.7857134125920501e-01 3.7549490528737849e+01 5.6331895685450085e+01 3.0087245494575122e+01 0 0 0
115 1 7 -1.6497790475688284e-01 3.8767266094941576e+01 5.9459867019892549e+01 2.9968059145194619e+01 0 0 0
118 1 7 3.6458868815384926e-01 3.9388154725512656e+01 6.0869358365625267e+01 2.9926978910347572e+01 0 0 0
121 1 8 -3.9711425433664793e-01 3.9395833203758784e+01 6.1592287047894004e+01 3.0988701393865714e+01 0 0 0
122 1 8 -3.4947651655702544e-01 3.9879003241428151e+01 6.1305857181526115e+01 2.8823002265854605e+01 0 0 0
180 1 7 -2.1818459241058275e-01 4.3596124304646239e+01 5.8029524903646376e+01 3.0504234134561969e+01 0 0 0
183 1 7 3.7836353530914724e-01 4.2359441905885788e+01 5.8937286295835939e+01 3.0334849745241048e+01 0 0 0
188 1 8 -3.8572752572722280e-01 4.1226091455826591e+01 5.8568473939418283e+01 3.0812027010606798e+01 0 0 0
189 1 8 -3.3981878220478073e-01 4.2460934506639674e+01 5.9986330914583498e+01 2.9599523704616306e+01 0 0 0
171 1 6 4.9596270107075220e-04 4.4836310039101903e+01 5.8869060475544913e+01 3.0393734476484536e+01 0 0 0
176 1 1 2.0672740645070342e-01 4.5676224810758285e+01 5.8172510368793404e+01 3.0085004245750440e+01 0 0 0
177 1 1 2.3816089863609374e-01 4.4797422675908315e+01 5.9638671256240812e+01 2.9567035739589610e+01 0 0 0
184 1 8 -3.4856603356218036e-01 4.6003088548269083e+01 6.1589540277655438e+01 3.0672423910111011e+01 0 0 0
279 1 1 2.2473848833861534e-01 4.9047741167598716e+01 5.6824316282422664e+01 2.9709163845754450e+01 0 0 0
287 1 7 3.4101104273035160e-01 4.9614631782952912e+01 5.8516778484099945e+01 2.7760162629243748e+01 0 0 0
291 1 8 -2.6815709263490228e-01 4.8384237812345212e+01 5.8156812541715205e+01 2.7808603632573405e+01 0 0 0
293 1 8 -3.6482614880312386e-01 4.7820497628260739e+01 5.8601836072262877e+01 3.0812298677022795e+01 0 0 0
217 1 1 2.6638753004954568e-01 5.4808047142923549e+01 6.2116003288942650e+01 3.0091954930812790e+01 0 0 0
274 1 6 -1.2250334114597916e-02 5.1899334898134661e+01 5.8597255925250394e+01 2.8735630131665769e+01 0 0 0
275 1 6 -1.0304756402193371e-02 5.0089161438745165e+01 5.7236117890210316e+01 2.9854373733702364e+01 0 0 0
276 1 6 -4.9913238344730104e-03 5.1431886554176039e+01 5.8876344054151943e+01 3.1252776713910706e+01 0 0 0
277 1 1 1.7708483081495655e-01 5.2774718199457496e+01 5.7894968012630173e+01 2.8895575142135076e+01 0 0 0
278 1 1 2.3120263981196260e-01 5.2179308314538460e+01 5.9179984065806195e+01 2.7807803984745465e+01 0 0 0
280 1 1 1.7957854814297203e-01 5.0731655710445573e+01 5.6331979604295682e+01 3.0087381605021701e+01 0 0 0
283 1 7 -1.6495646568875066e-01 5.1948605420211386e+01 5.9460189485641543e+01 2.9967928914142249e+01 0 0 0
284 1 7 -2.0649272864276075e-01 5.0676034760433694e+01 5.7740349130494572e+01 2.8564042628792965e+01 0 0 0
285 1 7 -1.9095668196681229e-01 5.0182229982049208e+01 5.8044574281985412e+01 3.1129941698651283e+01 0 0 0
286 1 7 3.6474768675759200e-01 5.2570755916670954e+01 6.0869218911041642e+01 2.9927266385858601e+01 0 0 0
289 1 8 -3.9756840690338080e-01 5.2576439255064592e+01 6.1592821714525847e+01 3.0988520343874391e+01 0 0 0
290 1 8 -3.4917386635025305e-01 5.3060663561004169e+01 6.1306096161774299e+01 2.8823047669971530e+01 0 0 0
292 1 8 -2.5194400588724120e-01 4.9990273333563593e+01 5.9489604210752759e+01 2.7011958424167524e+01 0 0 0
351 1 7 3.7820889815642228e-01 5.5541600759765380e+01 5.8937264132086241e+01 3.0334805710855083e+01 0 0 0
356 1 8 -3.8546753106323772e-01 5.4408258524744113e+01 5.8568271936243860e+01 3.0811944718266542e+01 0 0 0
357 1 8 -3.3996001976607376e-01 5.5643036684553067e+01 5.9986293442835716e+01 2.9599399406988823e+01 0 0 0
339 1 6 -1.1066774946968754e-04 5.8018486634515007e+01 5.8869118786985382e+01 3.0393770948574090e+01 0 0 0
344 1 1 2.0654378668791071e-01 5.8858477603318192e+01 5.8172699523058405e+01 3.0085044347092481e+01 0 0 0
345 1 1 2.3781242529616090e-01 5.7979538458707680e+01 5.9638748690172847e+01 2.9567145208483797e+01 0 0 0
348 1 7 -2.1853288160281256e-01 5.6778354059801934e+01 5.8029462538596121e+01 3.0504203579062388e+01 0 0 0
352 1 8 -3.4910883874165782e-01 5.9184624573914626e+01 6.1589910778457281e+01 3.0672760590452835e+01 0 0 0
447 1 1 2.2636656103585101e-01 6.2227700698616793e+01 5.6824021145610011e+01 2.9709085915324657e+01 0 0 0
459 1 8 -2.6534812724981066e-01 6.1563823927093395e+01 5.8157310338305059e+01 2.7807602119944743e+01 0 0 0
461 1 8 -3.6274224025839896e-01 6.1000040040860789e+01 5.8601847890909816e+01 3.0811971925311550e+01 0 0 0
385 1 1 2.3261545710794571e-01 6.7988530155387110e+01 6.2121203089611491e+01 3.0091404230161302e+01 0 0 0
442 1 6 -1.3264355124099281e-02 6.5079901721619024e+01 5.8596175852393827e+01 2.8734721270223829e+01 0 0 0
443 1 6 -9.1097834031392023e-03 6.3268823910985752e+01 5.7235500428148541e+01 2.9854294640095304e+01 0 0 0
444 1 6 -9.3599648565006535e-03 6.4611883382391866e+01 5.8876054266068593e+01 3.1252358270481739e+01 0 0 0
445 1 1 1.4970824712790640e-01 6.5952306170200359e+01 5.7889303780615201e+01 2.8888057429856218e+01 0 0 0
446 1 1 2.2571373334736505e-01 6.5354991480130565e+01 5.9180160778586981e+01 2.7806723959329670e+01 0 0 0
448 1 1 1.7747985541889727e-01 6.3911184834580254e+01 5.6331126373852968e+01 3.0086464591615520e+01 0 0 0
451 1 7 -2.0138425324935849e-01 6.5143302161087149e+01 5.9451312347736213e+01 2.9970925688661680e+01 0 0 0
452 1 7 -2.0513069885780014e-01 6.3855841107326640e+01 5.7739629208059270e+01 2.8563842406618345e+01 0 0 0
453 1 7 -1.8831649930039721e-01 6.3362866222700703e+01 5.8044600879107392e+01 3.1128713098983773e+01 0 0 0
454 1 7 3.4691964773801026e-01 6.5736993692555728e+01 6.0873073579494246e+01 2.9922337333128226e+01 0 0 0
455 1 7 3.4227219802974679e-01 6.2793756236886502e+01 5.8518223046730583e+01 2.7759853592052334e+01 0 0 0
457 1 8 -4.1106504272429528e-01 6.5768530919986048e+01 6.1584490053728985e+01 3.0990792072043618e+01 0 0 0
458 1 8 -3.8246937719396884e-01 6.6276415383847009e+01 6.1287150107714155e+01 2.8833013327832877e+01 0 0 0
460 1 8 -2.4800926932977144e-01 6.3171111980950499e+01 5.9489173423116306e+01 2.7010430328140256e+01 0 0 0
150 1 6 -6.7240349689848336e-03 3.4335134425031420e+01 6.4649601254494954e+01 3.0395653222077030e+01 0 0 0
155 1 1 1.9809070426863717e-01 3.3500999259289571e+01 6.3945517158402509e+01 3.0087424091128007e+01 0 0 0
156 1 1 2.2161040476511237e-01 3.4379380520740852e+01 6.5418640922900408e+01 2.9569331535770996e+01 0 0 0
159 1 7 -1.8118471185663432e-01 3.5578920745173662e+01 6.3813757879150501e+01 3.0504563644575065e+01 0 0 0
162 1 7 3.7398149697361177e-01 3.6811338330867912e+01 6.4726159583675255e+01 3.0328642101578115e+01 0 0 0
163 1 8 -3.8503955145180196e-01 3.3153358709971229e+01 6.7361886931079994e+01 3.0665232438173717e+01 0 0 0
168 1 8 -3.4246852099791653e-01 3.6701809870514019e+01 6.5778024706965596e+01 2.9596468939091885e+01 0 0 0
615 1 1 2.5235359933404766e-01 3.5859806933404656e+01 6.8388779767437995e+01 2.9711239990958024e+01 0 0 0
43 1 6 -1.2710375848063555e-02 4.0451162919160510e+01 6.4377860566471284e+01 2.8736333536950138e+01 0 0 0
44 1 6 -4.4883226755295129e-03 4.2269277532548671e+01 6.3018866558309810e+01 2.9855357671869857e+01 0 0 0
45 1 6 -6.6535580317780944e-03 4.0917671474592957e+01 6.4655103757316823e+01 3.1252399650945602e+01 0 0 0
46 1 1 2.3195651634403375e-01 3.9577229634351319e+01 6.3672409442183266e+01 2.8898570502806134e+01 0 0 0
47 1 1 2.3390763469599773e-01 4.0169630845281951e+01 6.4958666262751166e+01 2.7807557302051158e+01 0 0 0
48 1 1 2.5416132964271299e-01 4.3309395950912027e+01 6.2600108506774568e+01 2.9710726771029332e+01 0 0 0
52 1 7 -1.7327179888594471e-01 4.0398675371360291e+01 6.5240427656371281e+01 2.9968689497822979e+01 0 0 0
53 1 7 -1.5666321308720582e-01 4.1678402447316905e+01 6.3525306708605555e+01 2.8566522668789034e+01 0 0 0
54 1 7 -1.7841590378929062e-01 4.2171005217131551e+01 6.3827460287236583e+01 3.1130255951086308e+01 0 0 0
55 1 7 3.6042261850449420e-01 3.9782281670681343e+01 6.6652365136575170e+01 2.9927324484253941e+01 0 0 0
56 1 7 3.2927291765674921e-01 4.2736817012364085e+01 6.4301816983983457e+01 2.7758608467909522e+01 0 0 0
58 1 8 -4.0410865819027242e-01 3.9776851148309227e+01 6.7375851957190179e+01 3.0989513760231585e+01 0 0 0
59 1 8 -3.5328988241228532e-01 3.9292761686076979e+01 6.7091139557373836e+01 2.8822866927789569e+01 0 0 0
61 1 8 -2.5524494984105922e-01 4.2359503633487357e+01 6.5277927979178457e+01 2.7014886559189645e+01 0 0 0
167 1 8 -3.4502225458186719e-01 3.7944038080130923e+01 6.4380324782908687e+01 3.0826557128052702e+01 0 0 0
616 1 1 2.6351892403603366e-01 3.7543276456510739e+01 6.7903448616275185e+01 3.0091693415761750e+01 0 0 0
60 1 8 -2.5567657792591281e-01 4.3969285170547472e+01 6.3948411766303401e+01 2.7810664929200030e+01 0 0 0
62 1 8 -3.4545638716647886e-01 4.4528569785908111e+01 6.4402470654719281e+01 3.0805777689022047e+01 0 0 0
318 1 6 -2.7748533266952272e-03 4.7513518630497742e+01 6.4648576953576011e+01 3.0393049214766595e+01 0 0 0
323 1 1 2.4035432801176942e-01 4.6676449794623849e+01 6.3946092877287157e+01 3.0086056949829555e+01 0 0 0
324 1 1 2.3630595628609480e-01 4.7552314630655353e+01 6.5417951155662564e+01 2.9566222512317385e+01 0 0 0
327 1 7 -1.8392611111682844e-01 4.8758004193161284e+01 6.3814069663341954e+01 3.0503521046975575e+01 0 0 0
330 1 7 3.7202235094495195e-01 4.9991031275244090e+01 6.4725571360476422e+01 3.0328177848649503e+01 0 0 0
331 1 8 -3.5524611488641789e-01 4.6349101488058714e+01 6.7372810908430424e+01 3.0672167773934461e+01 0 0 0
336 1 8 -3.4341286757300338e-01 4.9882710134210271e+01 6.5778205852667398e+01 2.9597659294708421e+01 0 0 0
783 1 1 2.5099149237856977e-01 4.9042179258315720e+01 6.8387990527549377e+01 2.9710457228135464e+01 0 0 0
211 1 6 -1.2363342246288747e-02 5.3633325556396322e+01 6.4377864246656102e+01 2.8736261906843950e+01 0 0 0
212 1 6 -4.3276082205459237e-03 5.5451340116564992e+01 6.3018832847365900e+01 2.9855420452257651e+01 0 0 0
213 1 6 -5.8693952282499601e-03 5.4099836099329387e+01 6.4655100866144465e+01 3.1252450905315531e+01 0 0 0
214 1 1 2.3121581957774923e-01 5.2759538951216705e+01 6.3672293574304909e+01 2.8898459473919022e+01 0 0 0
215 1 1 2.3373481768226573e-01 5.3352011402884152e+01 6.4958710894463664e+01 2.7807485693234305e+01 0 0 0
220 1 7 -1.7323701828170154e-01 5.3580563497481059e+01 6.5240262334118839e+01 2.9968736367749887e+01 0 0 0
221 1 7 -1.5623792123035485e-01 5.4860524143859855e+01 6.3525246146687799e+01 2.8566494912958930e+01 0 0 0
222 1 7 -1.7810080230745781e-01 5.5353168623792591e+01 6.3827497661012949e+01 3.1130254080153755e+01 0 0 0
223 1 7 3.5999544106776221e-01 5.2964642804188287e+01 6.6652420453858923e+01 2.9927116478571659e+01 0 0 0
224 1 7 3.2938691475320347e-01 5.5919011032122881e+01 6.4301858781679741e+01 2.7758619617734560e+01 0 0 0
226 1 8 -4.0294132400715177e-01 5.2958660701902154e+01 6.7375685938246619e+01 3.0989451469626044e+01 0 0 0
227 1 8 -3.5393115492492078e-01 5.2474002545856649e+01 6.7090603801313378e+01 2.8822913994038149e+01 0 0 0
229 1 8 -2.5510100084717846e-01 5.5541652296467547e+01 6.5277925426522316e+01 2.7014801858063290e+01 0 0 0
335 1 8 -3.4832926949660187e-01 5.1123088040615436e+01 6.4378946880671180e+01 3.0826195890454798e+01 0 0 0
784 1 1 2.6327764637374274e-01 5.0725843355956854e+01 6.7903946097916048e+01 3.0091833400564415e+01 0 0 0
216 1 1 2.5412436315194764e-01 5.6491405553238792e+01 6.2600044433341239e+01 2.9710782492704503e+01 0 0 0
228 1 8 -2.5572873409299435e-01 5.7151485233704157e+01 6.3948352175768711e+01 2.7810629290027130e+01 0 0 0
230 1 8 -3.4558325192576761e-01 5.7710804674773314e+01 6.4402492280169696e+01 3.0805880449143555e+01 0 0 0
486 1 6 -5.3348954617290084e-03 6.0695532885528877e+01 6.4648413872943621e+01 3.0393066316673817e+01 0 0 0
491 1 1 2.3937427628562485e-01 5.9858602228803747e+01 6.3945937344369078e+01 3.0085822222450854e+01 0 0 0
492 1 1 2.3528389005606515e-01 6.0734333483005862e+01 6.5417872944837072e+01 2.9566374038887378e+01 0 0 0
495 1 7 -1.8113603615597151e-01 6.1940249035742774e+01 6.3814240667062940e+01 3.0503631502992267e+01 0 0 0
499 1 8 -3.5572483659931048e-01 5.9530867607182529e+01 6.7372460656467013e+01 3.0671962938925251e+01 0 0 0
951 1 1 2.5140028546774562e-01 6.2222333530099206e+01 6.8387893142734953e+01 2.9710568998668837e+01 0 0 0
379 1 6 -1.1211881139289137e-02 6.6810935438878815e+01 6.4378246411156738e+01 2.8734491965625157e+01 0 0 0
380 1 6 -1.2569310924208927e-02 6.8630841979890675e+01 6.3022874180395007e+01 2.9853064404776571e+01 0 0 0
381 1 6 -9.1054695803815516e-03 6.7276736727528814e+01 6.4655952270844267e+01 3.1251195680839739e+01 0 0 0
382 1 1 2.3249099621136382e-01 6.5938567792239411e+01 6.3671090251999686e+01 2.8897418932416130e+01 0 0 0
383 1 1 2.3335924010437659e-01 6.6530913410745740e+01 6.4959718893181346e+01 2.7806730478277107e+01 0 0 0
388 1 7 -1.6530251292570783e-01 6.6755426966507372e+01 6.5240020504778997e+01 2.9967856751542012e+01 0 0 0
389 1 7 -1.6623775087907336e-01 6.8039156093589938e+01 6.3526685994001859e+01 2.8563743633967707e+01 0 0 0
390 1 7 -1.8246619741005565e-01 6.8529454430868810e+01 6.3828460954738667e+01 3.1128355062157219e+01 0 0 0
391 1 7 3.6402123790780205e-01 6.6141206669877391e+01 6.6655117513969188e+01 2.9923894327951984e+01 0 0 0
394 1 8 -4.0675086471879240e-01 6.6129773196610444e+01 6.7378263867953294e+01 3.0983798597749338e+01 0 0 0
395 1 8 -3.5625262168646765e-01 6.5653626861290974e+01 6.7089142124212316e+01 2.8819265639832256e+01 0 0 0
397 1 8 -2.4770514694429691e-01 6.8718908292344580e+01 6.5277698814516626e+01 2.7007693338345689e+01 0 0 0
498 1 7 3.7552219905118167e-01 6.3172989113530569e+01 6.4725865852852863e+01 3.0327768090447993e+01 0 0 0
503 1 8 -3.4055247861131854e-01 6.4304861555544704e+01 6.4380762180690184e+01 3.0826786195978890e+01 0 0 0
504 1 8 -3.4077118628302983e-01 6.3063758490515937e+01 6.5778616686048281e+01 2.9597857705097123e+01 0 0 0
952 1 1 2.6236379467674703e-01 6.3905659268741410e+01 6.7903266579202139e+01 3.0090971226372918e+01 0 0 0
384 1 1 2.3907946173179789e-01 6.9672464033358182e+01 6.2609243143516700e+01 2.9709021047970239e+01 0 0 0
392 1 7 3.2351926987484830e-01 6.9098279351773840e+01 6.4306864913207150e+01 2.7756747073665540e+01 0 0 0
396 1 8 -2.2526743496809332e-01 7.0327832130658081e+01 6.3942245455495424e+01 2.7796000107133430e+01 0 0 0
398 1 8 -2.0651187361860704e-01 7.0889690015578765e+01 6.4400229500638318e+01 3.0802780454963887e+01 0 0 0
516 1 7 -1.9697921400028312e-01 3.0416315159168107e+01 6.9601188367885129e+01 3.0503408567722236e+01 0 0 0
519 1 7 3.2507815565043602e-01 2.9181947151198369e+01 7.0509128536504647e+01 3.0325237902212166e+01 0 0 0
524 1 8 -2.2323913810650242e-01 2.8055871168559069e+01 7.0168160684465832e+01 3.0838284569906115e+01 0 0 0
525 1 8 -2.4351457338204863e-01 2.9288040091301806e+01 7.1571214551515666e+01 2.9610028390749818e+01 0 0 0
507 1 6 -4.5246333595437942e-03 3.1660627668119812e+01 7.0435901160712632e+01 3.0393038147086038e+01 0 0 0
512 1 1 2.3677221005157678e-01 3.2498431478669652e+01 6.9734783750425152e+01 3.0085468116655498e+01 0 0 0
513 1 1 2.3861586490374184e-01 3.1620163159094005e+01 7.1206747687250484e+01 2.9566743511120702e+01 0 0 0
520 1 8 -3.7080764114359388e-01 3.2820616310341052e+01 7.3165441305366613e+01 3.0678199010092317e+01 0 0 0
611 1 6 -4.4198991391947457e-03 3.6900109953338969e+01 6.8806527753987424e+01 2.9856106356563224e+01 0 0 0
620 1 7 -1.5737446216893469e-01 3.7491258795032103e+01 6.9312151652342735e+01 2.8566608197952927e+01 0 0 0
621 1 7 -1.7611564321788148e-01 3.6998514926216970e+01 6.9614872984746086e+01 3.1130237118013053e+01 0 0 0
623 1 7 3.3512314209433247e-01 3.6431329560707248e+01 7.0089935103837917e+01 2.7758361809129543e+01 0 0 0
627 1 8 -2.5575884065258037e-01 3.5200390806135147e+01 6.9733364425920144e+01 2.7808401799503965e+01 0 0 0
628 1 8 -2.5712254697249598e-01 3.6809337185221558e+01 7.1064988766286646e+01 2.7014896741427954e+01 0 0 0
629 1 8 -3.3528714724668357e-01 3.4640845091918727e+01 7.0188082256721273e+01 3.0805888485859427e+01 0 0 0
548 1 6 -5.3151475051741769e-03 4.2268391564545254e+01 7.4589776216939654e+01 2.9853103968144477e+01 0 0 0
552 1 1 2.5086926743837340e-01 4.3309032346533243e+01 7.4173266413207770e+01 2.9709907095591038e+01 0 0 0
553 1 1 2.6165501322509410e-01 4.1625186219018609e+01 7.3687750152070464e+01 3.0090521872596586e+01 0 0 0
610 1 6 -1.2575141763696162e-02 3.8718397143109129e+01 7.0165333055566563e+01 2.8735818802557791e+01 0 0 0
612 1 6 -4.5270263789383043e-03 3.8251242714693738e+01 7.0442238014791357e+01 3.1253368651777382e+01 0 0 0
613 1 1 2.2981080259337733e-01 3.9591735716439295e+01 6.9459803236051187e+01 2.8898591984593242e+01 0 0 0
614 1 1 2.3471392287064874e-01 3.8999725659021699e+01 7.0746358864855566e+01 2.7807739364054964e+01 0 0 0
619 1 7 -1.7063514766981280e-01 3.8771380177880566e+01 7.1027370493868986e+01 2.9968997853709624e+01 0 0 0
622 1 7 3.6116419987424803e-01 3.9386936070303960e+01 7.2440525838862897e+01 2.9926839677428365e+01 0 0 0
625 1 8 -4.0752090557149684e-01 3.9394722528276809e+01 7.3162688366665193e+01 3.0989959624523323e+01 0 0 0
626 1 8 -3.5819605320665132e-01 3.9875858247898776e+01 7.2879217919434282e+01 2.8822012965443683e+01 0 0 0
684 1 7 -1.8617102722498197e-01 4.3593120742979217e+01 6.9601556757675311e+01 3.0503622887822875e+01 0 0 0
687 1 7 3.7589521674497511e-01 4.2360294419699919e+01 7.0512982340592899e+01 3.0329117863265918e+01 0 0 0
692 1 8 -3.4556440716062292e-01 4.1227936235103094e+01 7.0164674348779343e+01 3.0824721972187071e+01 0 0 0
693 1 8 -3.3906994586688810e-01 4.2468065314497167e+01 7.1564912465733329e+01 2.9597836081822383e+01 0 0 0
675 1 6 -8.3054078415711191e-04 4.4837794236450151e+01 7.0435854395195776e+01 3.0393375471536540e+01 0 0 0
680 1 1 2.3952447154251230e-01 4.5674799240273991e+01 6.9733525422321790e+01 3.0085753346441162e+01 0 0 0
681 1 1 2.3701700927802877e-01 4.4798470981039877e+01 7.1205245593933569e+01 2.9566560313751712e+01 0 0 0
688 1 8 -3.5650650906933479e-01 4.6002353205407722e+01 7.3159404962549985e+01 3.0671378920425518e+01 0 0 0
791 1 7 3.3130218511904502e-01 4.9613793949033791e+01 7.0089830317211650e+01 2.7758114474614725e+01 0 0 0
795 1 8 -2.5618105951503478e-01 4.8382374919848409e+01 6.9735005239283183e+01 2.7810202714803335e+01 0 0 0
797 1 8 -3.4491591494403956e-01 4.7822438281344887e+01 7.0188168267841149e+01 3.0806054440448090e+01 0 0 0
716 1 6 -5.3374646188696483e-03 5.5450363710148267e+01 7.4589791343672275e+01 2.9853126131686047e+01 0 0 0
721 1 1 2.6182573588646418e-01 5.4806995737406439e+01 7.3687872641613481e+01 3.0090623322309444e+01 0 0 0
778 1 6 -1.0636792618819569e-02 5.1900515386643541e+01 7.0165515676994602e+01 2.8736207612172127e+01 0 0 0
779 1 6 -7.1719984093520572e-03 5.0082114448523100e+01 6.8806467089009104e+01 2.9855929376987500e+01 0 0 0
780 1 6 -2.7616431281027413e-03 5.1433213459732954e+01 7.0442296576064820e+01 3.1253015933495025e+01 0 0 0
781 1 1 2.3028527934259724e-01 5.2773768859896059e+01 6.9459739082742360e+01 2.8898914171491661e+01 0 0 0
782 1 1 2.3495732866193264e-01 5.2181755964493014e+01 7.0746244897810968e+01 2.7807753697464399e+01 0 0 0
787 1 7 -1.6957078870589570e-01 5.1952924907715619e+01 7.1027628623165612e+01 2.9968967876822042e+01 0 0 0
788 1 7 -1.5739729571029260e-01 5.0673549691199113e+01 6.9311959438644692e+01 2.8566490294679095e+01 0 0 0
789 1 7 -1.7854404894876114e-01 5.0180381976160447e+01 6.9614825215414044e+01 3.1130009041519887e+01 0 0 0
790 1 7 3.6160577392728904e-01 5.2569134537537217e+01 7.2440200297931810e+01 2.9927036327533749e+01 0 0 0
793 1 8 -4.0734097101264871e-01 5.2575752464439582e+01 7.3163061590403316e+01 3.0989648632534731e+01 0 0 0
794 1 8 -3.5817504783474796e-01 5.3057646899727068e+01 7.2879228047055093e+01 2.8822207014739924e+01 0 0 0
796 1 8 -2.5510311907827132e-01 4.9991706085605458e+01 7.1065102790169377e+01 2.7014751156825739e+01 0 0 0
855 1 7 3.7527443968012902e-01 5.5542498892855384e+01 7.0512952507364659e+01 3.0329035764103008e+01 0 0 0
860 1 8 -3.4527839235352237e-01 5.4410174808239624e+01 7.0164656500156966e+01 3.0824755357737573e+01 0 0 0
861 1 8 -3.3958452235394931e-01 5.5650203818518371e+01 7.1564881846501891e+01 2.9597720249285636e+01 0 0 0
720 1 1 2.5071253119484910e-01 5.6490974377164882e+01 7.4173218217044337e+01 2.9709932038676307e+01 0 0 0
843 1 6 -1.2342565025045965e-03 5.8019978255797561e+01 7.0435834391777135e+01 3.0393386004042956e+01 0 0 0
848 1 1 2.3968228982319151e-01 5.8857082371232153e+01 6.9733613096550499e+01 3.0085794059641774e+01 0 0 0
849 1 1 2.3677631272670879e-01 5.7980645641833036e+01 7.1205243095248974e+01 2.9566610683591072e+01 0 0 0
852 1 7 -1.8643438346183855e-01 5.6775310904111230e+01 6.9601526293090544e+01 3.0503583696891038e+01 0 0 0
856 1 8 -3.5675787450886287e-01 5.9183738308835764e+01 7.3159735212541435e+01 3.0671627545291532e+01 0 0 0
963 1 8 -2.5334054636125958e-01 6.1562138376732300e+01 6.9735387206965115e+01 2.7809068877552889e+01 0 0 0
965 1 8 -3.4282455105831067e-01 6.1002400597221019e+01 7.0188362936843745e+01 3.0805787672345403e+01 0 0 0
884 1 6 -1.4678238986251084e-02 6.8631558739396951e+01 7.4595276711274678e+01 2.9852416169569167e+01 0 0 0
889 1 1 2.3239148719737407e-01 6.7990068702600041e+01 7.3692914052596109e+01 3.0090590070686829e+01 0 0 0
946 1 6 -1.0068164927573927e-02 6.5080667647517373e+01 7.0165946004491516e+01 2.8736502743993608e+01 0 0 0
947 1 6 -6.6007855403950990e-03 6.3262099738770175e+01 6.8806090847732577e+01 2.9855903476030601e+01 0 0 0
948 1 6 -5.6118953361660347e-03 6.4613182218974913e+01 7.0443495392538892e+01 3.1251144116921427e+01 0 0 0
949 1 1 2.1244017570466175e-01 6.5951559515095369e+01 6.9455981627753786e+01 2.8892347206932335e+01 0 0 0
950 1 1 2.2995311497152993e-01 6.5358643390940614e+01 7.0746562525187457e+01 2.7806639987464703e+01 0 0 0
955 1 7 -1.9852857192001416e-01 6.5143266502009055e+01 7.1022087111276633e+01 2.9970870707551651e+01 0 0 0
956 1 7 -1.5759246742333094e-01 6.3853210224241963e+01 6.9311912415635391e+01 2.8566080590277384e+01 0 0 0
957 1 7 -1.7653219176884516e-01 6.3361117912288705e+01 6.9615341511147250e+01 3.1128973289771682e+01 0 0 0
958 1 7 3.4718325851771881e-01 6.5738522749787805e+01 7.2442519247590141e+01 2.9923618857524971e+01 0 0 0
959 1 7 3.3103902576770866e-01 6.2793470423990470e+01 7.0090664645995801e+01 2.7757812668419508e+01 0 0 0
961 1 8 -4.2119388828893090e-01 6.5765416599767804e+01 7.3157086335088806e+01 3.0991022990908615e+01 0 0 0
962 1 8 -3.8696730362011644e-01 6.6269265996049043e+01 7.2863304426212963e+01 2.8831726241965342e+01 0 0 0
964 1 8 -2.5291304130743814e-01 6.3172649059451203e+01 7.1064688551560664e+01 2.7013421382231932e+01 0 0 0
888 1 1 2.4074175539611070e-01 6.9673295424529059e+01 7.4181787655922193e+01 2.9709046167969117e+01 0 0 0
654 1 6 -1.0953154003783517e-02 3.4335440383301986e+01 7.6218433824687054e+01 3.0391650552112548e+01 0 0 0
659 1 1 1.9774674067018888e-01 3.3497351757766104e+01 7.5519087688602369e+01 3.0084035883944885e+01 0 0 0
660 1 1 2.2790329691868261e-01 3.4379736950073649e+01 7.6993062960659017e+01 2.9569842321388158e+01 0 0 0
663 1 7 -1.9018887738260976e-01 3.5578599375372150e+01 7.5382105980687996e+01 3.0502435955134473e+01 0 0 0
666 1 7 3.4389367305844160e-01 3.6812327433707424e+01 7.6291099252835181e+01 3.0329341076573190e+01 0 0 0
667 1 8 -2.3679235627258427e-01 3.3162150768394568e+01 7.8933752908036979e+01 3.0662279871172430e+01 0 0 0
672 1 8 -2.5571049931332746e-01 3.6707255313416418e+01 7.7345954604131563e+01 2.9602831127039774e+01 0 0 0
547 1 6 -1.5823095489172392e-02 4.0450667216078067e+01 7.5948104205013053e+01 2.8730471159672341e+01 0 0 0
549 1 6 -1.5626073211194996e-02 4.0916882463663036e+01 7.6227622719561239e+01 3.1248386747925885e+01 0 0 0
550 1 1 2.2695156091323604e-01 3.9576292823760305e+01 7.5244930446628089e+01 2.8896205936392654e+01 0 0 0
551 1 1 2.3380131978285598e-01 4.0170766608392320e+01 7.6532330311663401e+01 2.7804468429071537e+01 0 0 0
556 1 7 -1.6015677120424798e-01 4.0398483789709722e+01 7.6812294981436750e+01 2.9962164636699800e+01 0 0 0
557 1 7 -1.6248039579507009e-01 4.1678552513853525e+01 7.5095897507820737e+01 2.8562511090965895e+01 0 0 0
558 1 7 -1.8857651364651226e-01 4.2169707423032527e+01 7.5398806362030953e+01 3.1127010417199369e+01 0 0 0
559 1 7 3.3192692695532389e-01 3.9774516973436896e+01 7.8222151011792747e+01 2.9919862590571039e+01 0 0 0
560 1 7 3.2817905378953915e-01 4.2739061898296562e+01 7.5876452991619317e+01 2.7759006057653725e+01 0 0 0
562 1 8 -2.0813800384444978e-01 3.9761462361658324e+01 7.8940309750559763e+01 3.0985731693161082e+01 0 0 0
563 1 8 -2.1747634443586569e-01 3.9279415233724770e+01 7.8657010499153429e+01 2.8816351299201759e+01 0 0 0
565 1 8 -2.4452575169890617e-01 4.2360485432743417e+01 7.6846004525927867e+01 2.7007116141032736e+01 0 0 0
671 1 8 -3.4725618757911902e-01 3.7940774423920523e+01 7.5946970089511851e+01 3.0834974707315144e+01 0 0 0
564 1 8 -2.5623712454175185e-01 4.3970742004102640e+01 7.5519344513722146e+01 2.7808824200246857e+01 0 0 0
566 1 8 -3.3270238317185241e-01 4.4530047819561204e+01 7.5965939101802903e+01 3.0807747157261200e+01 0 0 0
822 1 6 -6.7742649142761525e-03 4.7514000882478008e+01 7.6217978270927404e+01 3.0390127080328263e+01 0 0 0
827 1 1 2.3888564939252488e-01 4.6674418381380619e+01 7.5519018894523882e+01 3.0082829088557734e+01 0 0 0
828 1 1 2.4162244773776376e-01 4.7553029466510523e+01 7.6992079478139885e+01 2.9567073510874991e+01 0 0 0
831 1 7 -1.9269320514829047e-01 4.8757262444069696e+01 7.5382682238982994e+01 3.0502360313104997e+01 0 0 0
834 1 7 3.4060656425088370e-01 4.9991850881418543e+01 7.6290047001900206e+01 3.0328453613388405e+01 0 0 0
835 1 8 -2.0706935963458173e-01 4.6350316126874304e+01 7.8939900779522048e+01 3.0664837692212487e+01 0 0 0
840 1 8 -2.5973947856739232e-01 4.9887489993632478e+01 7.7346648480584150e+01 2.9604588142249412e+01 0 0 0
715 1 6 -1.5335814605814449e-02 5.3632815278787852e+01 7.5948252022424512e+01 2.8730556196029440e+01 0 0 0
717 1 6 -1.4396470187732198e-02 5.4098991854642797e+01 7.6227769813454302e+01 3.1248326221712063e+01 0 0 0
718 1 1 2.2648307936831141e-01 5.2758488800693797e+01 7.5244952627963144e+01 2.8896167436453432e+01 0 0 0
719 1 1 2.3386618872813880e-01 5.3353101443747697e+01 7.6532500455919418e+01 2.7804455318005662e+01 0 0 0
724 1 7 -1.5964280248557489e-01 5.3580417952017839e+01 7.6812281578295313e+01 2.9962239933735816e+01 0 0 0
725 1 7 -1.6228769610028773e-01 5.4860629560599016e+01 7.5095947777075750e+01 2.8562523047513430e+01 0 0 0
726 1 7 -1.8839684940527235e-01 5.5351774157935814e+01 7.5398868590708915e+01 3.1126998931162312e+01 0 0 0
727 1 7 3.3222634182856087e-01 5.2957157563113050e+01 7.8222362445840020e+01 2.9919659724136796e+01 0 0 0
728 1 7 3.2818540312113187e-01 5.5921178501957819e+01 7.5876465718546001e+01 2.7759042186955440e+01 0 0 0
730 1 8 -2.0873231432843412e-01 5.2942500596651477e+01 7.8940029022373594e+01 3.0985836177336427e+01 0 0 0
731 1 8 -2.1911258545100135e-01 5.2460583531266174e+01 7.8656578679714102e+01 2.8816561658795013e+01 0 0 0
733 1 8 -2.4424364176858243e-01 5.5542651541045636e+01 7.6845955291475562e+01 2.7007027681631019e+01 0 0 0
839 1 8 -3.5061122835688785e-01 5.1119612149908441e+01 7.5946302147356320e+01 3.0835540239274916e+01 0 0 0
732 1 8 -2.5638142888860277e-01 5.7152843962614696e+01 7.5519269887130235e+01 2.7808838509614276e+01 0 0 0
734 1 8 -3.3269237793994605e-01 5.7712164712220364e+01 7.5965856350606529e+01 3.0807718410594088e+01 0 0 0