ITEM: TIMESTEP
0
ITEM: NUMBER OF ATOMS
576
ITEM: BOX BOUNDS xy xz yz pp pp pp
-3.8734541101000000e+00 1.7704000473000001e+01 0.0000000000000000e+00
0.0000000000000000e+00 2.5111999511699999e+01 -3.8734541101000000e+00
0.0000000000000000e+00 1.2813326682700000e+01 0.0000000000000000e+00
ITEM: ATOMS id type xs ys zs
1 1 0.221345 0.317111 0.868316
2 1 0.778657 0.682888 0.131685
3 1 0.0286559 0.567111 0.631686
4 1 0.471343 0.932888 0.368314
5 1 0.221344 0.817111 0.868315
6 1 0.778657 0.182888 0.131685
7 1 0.0286559 0.0671112 0.631686
8 1 0.471343 0.432888 0.368314
9 1 0.721343 0.317111 0.868315
10 1 0.278657 0.682888 0.131685
11 1 0.528657 0.567112 0.631685
12 1 0.971343 0.932888 0.368315
13 1 0.721343 0.817112 0.868314
14 1 0.278657 0.182888 0.131685
15 1 0.528657 0.0671117 0.631686
16 1 0.971343 0.432888 0.368315
17 1 0.155522 0.317822 0.682951
18 1 0.844459 0.682174 0.317034
19 1 0.0944651 0.567825 0.817039
20 1 0.405541 0.932174 0.182966
21 1 0.155531 0.817824 0.682957
22 1 0.844459 0.182174 0.317034
23 1 0.0944643 0.0678249 0.817038
24 1 0.405541 0.432174 0.182965
25 1 0.655536 0.317825 0.682961
26 1 0.344461 0.682174 0.317036
27 1 0.594461 0.567826 0.817036
28 1 0.905541 0.932174 0.182966
29 1 0.655543 0.817827 0.682967
30 1 0.344462 0.182174 0.317037
31 1 0.594457 0.0678265 0.817033
32 1 0.90554 0.432174 0.182965
33 1 0.275452 0.256672 0.692902
34 1 0.724547 0.743327 0.307096
35 1 0.974547 0.506673 0.807097
36 1 0.525453 0.993327 0.192904
37 1 0.275453 0.756672 0.692902
38 1 0.724547 0.243327 0.307096
39 1 0.974547 0.00667269 0.807097
40 1 0.525453 0.493327 0.192904
41 1 0.775453 0.256673 0.692903
42 1 0.224547 0.743327 0.307096
43 1 0.474547 0.506673 0.807096
44 1 0.0254528 0.993327 0.192904
45 1 0.775453 0.756673 0.692904
46 1 0.224547 0.243327 0.307097
47 1 0.474547 0.00667347 0.807096
48 1 0.0254528 0.493327 0.192904
49 1 0.296104 0.279286 0.875668
50 1 0.703895 0.720715 0.124331
51 1 0.953897 0.529286 0.624332
52 1 0.546104 0.970715 0.375669
53 1 0.296104 0.779286 0.875668
54 1 0.703895 0.220715 0.124331
55 1 0.953897 0.0292858 0.624332
56 1 0.546104 0.470715 0.375669
57 1 0.796105 0.279285 0.875669
58 1 0.203895 0.720715 0.124331
59 1 0.453895 0.529285 0.624331
60 1 0.0461045 0.970715 0.375669
61 1 0.796104 0.779285 0.875669
62 1 0.203895 0.220715 0.124331
63 1 0.453895 0.0292852 0.624331
64 1 0.0461046 0.470715 0.375669
65 1 0.33329 0.309383 0.722084
66 1 0.666711 0.690618 0.277916
67 1 0.91671 0.559382 0.777916
68 1 0.583289 0.940618 0.222084
69 1 0.33329 0.809382 0.722084
70 1 0.666711 0.190618 0.277916
71 1 0.91671 0.0593822 0.777916
72 1 0.583289 0.440618 0.222084
73 1 0.833289 0.309382 0.722084
74 1 0.166711 0.690618 0.277916
75 1 0.416711 0.559382 0.777916
76 1 0.0832888 0.940618 0.222084
77 1 0.833289 0.809382 0.722084
78 1 0.166711 0.190618 0.277916
79 1 0.416711 0.0593816 0.777916
80 1 0.0832889 0.440618 0.222084
81 1 0.215102 0.368515 0.713587
82 1 0.784897 0.631499 0.286408
83 1 0.0348972 0.618505 0.786409
84 1 0.465103 0.881499 0.213592
85 1 0.215103 0.868509 0.713589
86 1 0.784897 0.131499 0.286408
87 1 0.0348972 0.118505 0.786409
88 1 0.465103 0.381499 0.213592
89 1 0.715103 0.368505 0.713591
90 1 0.284897 0.631498 0.286408
91 1 0.534897 0.618502 0.786408
92 1 0.965103 0.881499 0.213592
93 1 0.715103 0.8685 0.713593
94 1 0.284897 0.131497 0.286408
95 1 0.534897 0.1185 0.786407
96 1 0.965103 0.381499 0.213592
97 2 0.207566 0.321348 0.943383
98 2 0.792434 0.678652 0.0566168
99 2 0.042434 0.571348 0.556617
100 2 0.457566 0.928652 0.443383
101 2 0.207566 0.821348 0.943383
102 2 0.792434 0.178652 0.0566168
103 2 0.042434 0.0713481 0.556617
104 2 0.457566 0.428652 0.443383
105 2 0.707566 0.321348 0.943383
106 2 0.292434 0.678652 0.0566168
107 2 0.542434 0.571348 0.556617
108 2 0.957566 0.928652 0.443383
109 2 0.707566 0.821348 0.943383
110 2 0.292434 0.178652 0.0566168
111 2 0.542434 0.0713482 0.556617
112 2 0.957566 0.428652 0.443383
113 2 0.0974511 0.328238 0.627136
114 2 0.902549 0.671762 0.372863
115 2 0.152549 0.578238 0.872863
116 2 0.347451 0.921762 0.127137
117 2 0.0974511 0.828238 0.627136
118 2 0.902549 0.171762 0.372863
119 2 0.152549 0.0782376 0.872863
120 2 0.347451 0.421762 0.127137
121 2 0.597451 0.328238 0.627136
122 2 0.402549 0.671762 0.372863
123 2 0.652549 0.578238 0.872863
124 2 0.847451 0.921762 0.127137
125 2 0.597451 0.828238 0.627137
126 2 0.402549 0.171762 0.372864
127 2 0.652549 0.0782376 0.872863
128 2 0.847451 0.421762 0.127137
129 2 0.294811 0.227464 0.643576
130 2 0.705189 0.772536 0.356424
131 2 0.955189 0.477464 0.856424
132 2 0.544811 0.0225362 0.143576
133 2 0.294811 0.727464 0.643576
134 2 0.705189 0.272536 0.356424
135 2 0.955189 0.977464 0.856424
136 2 0.544811 0.522536 0.143576
137 2 0.794811 0.227464 0.643576
138 2 0.205189 0.772536 0.356424
139 2 0.455189 0.477464 0.856424
140 2 0.0448107 0.0225362 0.143576
141 2 0.794811 0.727464 0.643576
142 2 0.205189 0.272536 0.356424
143 2 0.455189 0.977464 0.856424
144 2 0.0448107 0.522536 0.143576
145 2 0.319186 0.264421 0.957276
146 2 0.680814 0.735579 0.042724
147 2 0.930814 0.514421 0.542724
148 2 0.569186 0.985579 0.457276
149 2 0.319186 0.764421 0.957276
150 2 0.680814 0.235579 0.0427239
151 2 0.930814 0.0144209 0.542724
152 2 0.569186 0.485579 0.457276
153 2 0.819186 0.264421 0.957276
154 2 0.180814 0.735579 0.042724
155 2 0.430814 0.514421 0.542724
156 2 0.0691862 0.985579 0.457276
157 2 0.819186 0.764421 0.957276
158 2 0.180814 0.235579 0.042724
159 2 0.430814 0.0144209 0.542724
160 2 0.0691862 0.485579 0.457276
161 2 0.384127 0.307478 0.690191
162 2 0.615873 0.692522 0.309809
163 2 0.865873 0.557478 0.809809
164 2 0.634127 0.942522 0.190191
165 2 0.384127 0.807478 0.690191
166 2 0.615873 0.192522 0.309809
167 2 0.865873 0.0574776 0.809809
168 2 0.634127 0.442522 0.190191
169 2 0.884127 0.307478 0.690191
170 2 0.115873 0.692522 0.309809
171 2 0.365873 0.557478 0.809809
172 2 0.134127 0.942522 0.190191
173 2 0.884127 0.807478 0.690191
174 2 0.115873 0.192522 0.309809
175 2 0.365873 0.0574776 0.809809
176 2 0.134127 0.442522 0.190191
177 2 0.187352 0.406285 0.678484
178 2 0.812648 0.593715 0.321516
179 2 0.0626483 0.656285 0.821516
180 2 0.437352 0.843715 0.178484
181 2 0.187352 0.906285 0.678484
182 2 0.812648 0.0937146 0.321516
183 2 0.0626483 0.156285 0.821516
184 2 0.437352 0.343715 0.178484
185 2 0.687352 0.406285 0.678484
186 2 0.312648 0.593715 0.321516
187 2 0.562648 0.656285 0.821516
188 2 0.937352 0.843715 0.178484
189 2 0.687352 0.906285 0.678484
190 2 0.312648 0.0937147 0.321516
191 2 0.562648 0.156285 0.821516
192 2 0.937352 0.343715 0.178484
193 3 0.152391 0.295553 0.785807
194 3 0.847608 0.704444 0.214206
195 3 0.0976077 0.545556 0.714201
196 3 0.402392 0.954443 0.285794
197 3 0.152392 0.795555 0.785801
198 3 0.847608 0.204444 0.214206
199 3 0.0976077 0.0455558 0.714202
200 3 0.402392 0.454444 0.285794
201 3 0.652391 0.295555 0.785797
202 3 0.347608 0.704444 0.214205
203 3 0.597608 0.545556 0.714205
204 3 0.902392 0.954444 0.285794
205 3 0.652392 0.795557 0.785792
206 3 0.347609 0.204444 0.214204
207 3 0.597608 0.0455567 0.714208
208 3 0.902392 0.454444 0.285794
209 3 0.0730885 0.303393 0.80411
210 3 0.926911 0.696607 0.19589
211 3 0.176911 0.553393 0.69589
212 3 0.323089 0.946607 0.30411
213 3 0.0730885 0.803393 0.80411
214 3 0.926911 0.196607 0.19589
215 3 0.176911 0.0533927 0.69589
216 3 0.323089 0.446607 0.30411
217 3 0.573089 0.303393 0.80411
218 3 0.426911 0.696607 0.19589
219 3 0.676911 0.553393 0.69589
220 3 0.823089 0.946607 0.30411
221 3 0.573089 0.803393 0.804109
222 3 0.426911 0.196607 0.19589
223 3 0.676911 0.0533927 0.695891
224 3 0.823089 0.446607 0.30411
225 3 0.195865 0.276948 0.637035
226 3 0.804138 0.723046 0.362957
227 3 0.0541375 0.526952 0.86296
228 3 0.445862 0.973046 0.137043
229 3 0.195863 0.776951 0.637039
230 3 0.804138 0.223046 0.362957
231 3 0.0541377 0.0269523 0.862959
232 3 0.445862 0.473046 0.137043
233 3 0.695863 0.276952 0.637041
234 3 0.304138 0.723047 0.362958
235 3 0.554138 0.526953 0.862958
236 3 0.945862 0.973046 0.137043
237 3 0.695862 0.776954 0.637044
238 3 0.304138 0.223047 0.362958
239 3 0.554138 0.0269542 0.862956
240 3 0.945862 0.473046 0.137043
241 3 0.152248 0.253504 0.533029
242 3 0.847752 0.746496 0.466971
243 3 0.0977523 0.503504 0.966971
244 3 0.402248 0.996496 0.0330292
245 3 0.152248 0.753504 0.533029
246 3 0.847752 0.246496 0.466971
247 3 0.0977523 0.00350378 0.966971
248 3 0.402248 0.496496 0.0330292
249 3 0.652248 0.253504 0.533029
250 3 0.347752 0.746496 0.466971
251 3 0.597752 0.503504 0.966971
252 3 0.902248 0.996496 0.0330292
253 3 0.652248 0.753504 0.533029
254 3 0.347752 0.246496 0.466971
255 3 0.597752 0.00350379 0.966971
256 3 0.902248 0.496496 0.0330292
257 3 0.283815 0.234541 0.798678
258 3 0.716185 0.765458 0.201325
259 3 0.966185 0.484542 0.701323
260 3 0.533815 0.0154584 0.298675
261 3 0.283815 0.734541 0.798677
262 3 0.716185 0.265458 0.201325
263 3 0.966185 0.984542 0.701323
264 3 0.533815 0.515458 0.298675
265 3 0.783815 0.234541 0.798676
266 3 0.216185 0.765459 0.201325
267 3 0.466185 0.484541 0.701325
268 3 0.0338149 0.0154585 0.298675
269 3 0.783815 0.734542 0.798675
270 3 0.216185 0.265459 0.201324
271 3 0.466185 0.984542 0.701325
272 3 0.0338149 0.515459 0.298675
273 3 0.222141 0.195533 0.804897
274 3 0.777859 0.804467 0.195103
275 3 0.0278589 0.445533 0.695103
276 3 0.472141 0.0544668 0.304897
277 3 0.222141 0.695533 0.804897
278 3 0.777859 0.304467 0.195103
279 3 0.0278588 0.945533 0.695103
280 3 0.472141 0.554467 0.304897
281 3 0.722141 0.195533 0.804897
282 3 0.277859 0.804467 0.195103
283 3 0.527859 0.445533 0.695103
284 3 0.972141 0.0544668 0.304897
285 3 0.722141 0.695533 0.804897
286 3 0.277859 0.304467 0.195103
287 3 0.527859 0.945533 0.695103
288 3 0.972141 0.554467 0.304897
289 3 0.359496 0.304308 0.837348
290 3 0.640504 0.695692 0.162654
291 3 0.890504 0.554308 0.662653
292 3 0.609496 0.945692 0.337346
293 3 0.359496 0.804308 0.837348
294 3 0.640504 0.195692 0.162654
295 3 0.890504 0.0543075 0.662653
296 3 0.609496 0.445692 0.337346
297 3 0.859496 0.304308 0.837347
298 3 0.140504 0.695692 0.162653
299 3 0.390504 0.554308 0.662653
300 3 0.109496 0.945692 0.337346
301 3 0.859496 0.804308 0.837346
302 3 0.140504 0.195692 0.162653
303 3 0.390504 0.0543079 0.662654
304 3 0.109496 0.445692 0.337346
305 3 0.396654 0.351731 0.898307
306 3 0.603346 0.648269 0.101693
307 3 0.853346 0.601731 0.601693
308 3 0.646654 0.898269 0.398307
309 3 0.396654 0.851731 0.898307
310 3 0.603346 0.148269 0.101693
311 3 0.853346 0.101731 0.601694
312 3 0.646654 0.398269 0.398307
313 3 0.896654 0.351731 0.898307
314 3 0.103346 0.648269 0.101693
315 3 0.353346 0.601731 0.601693
316 3 0.146654 0.898269 0.398307
317 3 0.896654 0.851731 0.898307
318 3 0.103346 0.148269 0.101693
319 3 0.353346 0.101731 0.601693
320 3 0.146654 0.398269 0.398307
321 3 0.282211 0.354735 0.672557
322 3 0.717801 0.645264 0.327437
323 3 0.967797 0.604736 0.827439
324 3 0.532199 0.895264 0.172563
325 3 0.282206 0.854736 0.672559
326 3 0.717801 0.145264 0.327437
327 3 0.967798 0.104736 0.827439
328 3 0.532199 0.395264 0.172563
329 3 0.782202 0.354736 0.672561
330 3 0.2178 0.645264 0.327437
331 3 0.4678 0.604736 0.827437
332 3 0.0321991 0.895264 0.172563
333 3 0.782198 0.854736 0.672564
334 3 0.217799 0.145264 0.327438
335 3 0.467802 0.104736 0.827436
336 3 0.0321996 0.395264 0.172563
337 3 0.325722 0.40173 0.645314
338 3 0.674278 0.598269 0.354686
339 3 0.924278 0.651731 0.854686
340 3 0.575722 0.848269 0.145314
341 3 0.325722 0.901731 0.645314
342 3 0.674278 0.0982694 0.354686
343 3 0.924278 0.151731 0.854686
344 3 0.575722 0.348269 0.145314
345 3 0.825722 0.401731 0.645314
346 3 0.174278 0.598269 0.354686
347 3 0.424278 0.651731 0.854686
348 3 0.075722 0.848269 0.145314
349 3 0.825722 0.901731 0.645314
350 3 0.174278 0.0982694 0.354686
351 3 0.424278 0.151731 0.854686
352 3 0.075722 0.348269 0.145314
353 3 0.240805 0.369865 0.830468
354 3 0.759199 0.630135 0.169551
355 3 0.00919749 0.619864 0.669544
356 3 0.490801 0.880135 0.330449
357 3 0.240804 0.869865 0.83046
358 3 0.759199 0.130135 0.169551
359 3 0.00919766 0.119864 0.669545
360 3 0.490801 0.380135 0.330449
361 3 0.740802 0.369865 0.830454
362 3 0.259198 0.630135 0.16955
363 3 0.509198 0.619865 0.66955
364 3 0.990801 0.880135 0.330449
365 3 0.740801 0.869865 0.830447
366 3 0.259198 0.130135 0.169548
367 3 0.509199 0.119865 0.669553
368 3 0.990801 0.380135 0.33045
369 3 0.2084 0.417164 0.873961
370 3 0.7916 0.582836 0.12604
371 3 0.0416002 0.667164 0.62604
372 3 0.4584 0.832836 0.37396
373 3 0.2084 0.917164 0.87396
374 3 0.7916 0.0828357 0.12604
375 3 0.0416002 0.167164 0.62604
376 3 0.4584 0.332836 0.37396
377 3 0.7084 0.417164 0.87396
378 3 0.2916 0.582836 0.12604
379 3 0.5416 0.667164 0.62604
380 3 0.9584 0.832836 0.37396
381 3 0.7084 0.917164 0.87396
382 3 0.2916 0.0828357 0.12604
383 3 0.5416 0.167164 0.62604
384 3 0.9584 0.332836 0.37396
385 4 0.0104822 0.308569 0.72542
386 4 0.989517 0.691431 0.27458
387 4 0.239518 0.558569 0.77458
388 4 0.260483 0.941431 0.22542
389 4 0.0104824 0.808569 0.72542
390 4 0.989517 0.191431 0.27458
391 4 0.239518 0.058569 0.77458
392 4 0.260483 0.441431 0.22542
393 4 0.510482 0.308569 0.72542
394 4 0.489517 0.691431 0.27458
395 4 0.739517 0.558569 0.77458
396 4 0.760483 0.941431 0.22542
397 4 0.510483 0.808569 0.72542
398 4 0.489518 0.191431 0.27458
399 4 0.739517 0.058569 0.77458
400 4 0.760483 0.441431 0.22542
401 4 0.0677807 0.298486 0.898113
402 4 0.932219 0.701514 0.101886
403 4 0.182219 0.548486 0.601886
404 4 0.317781 0.951514 0.398114
405 4 0.0677807 0.798486 0.898114
406 4 0.932219 0.201514 0.101886
407 4 0.182219 0.0484859 0.601886
408 4 0.317781 0.451514 0.398114
409 4 0.567781 0.298486 0.898114
410 4 0.432219 0.701514 0.101886
411 4 0.682219 0.548486 0.601886
412 4 0.817781 0.951514 0.398114
413 4 0.567781 0.798486 0.898114
414 4 0.432219 0.201514 0.101886
415 4 0.682219 0.0484859 0.601886
416 4 0.817781 0.451514 0.398114
417 4 0.184314 0.214649 0.497208
418 4 0.815685 0.785352 0.502792
419 4 0.0656854 0.464648 0.00279207
420 4 0.434315 0.0353517 0.997208
421 4 0.184315 0.714648 0.497208
422 4 0.815685 0.285352 0.502792
423 4 0.0656854 0.964648 0.00279209
424 4 0.434315 0.535352 0.997208
425 4 0.684315 0.214648 0.497208
426 4 0.315685 0.785352 0.502792
427 4 0.565685 0.464648 0.0027921
428 4 0.934315 0.0353517 0.997208
429 4 0.684315 0.714648 0.497208
430 4 0.315685 0.285352 0.502792
431 4 0.565685 0.964648 0.00279215
432 4 0.934315 0.535352 0.997208
433 4 0.0885961 0.276117 0.47734
434 4 0.911404 0.723883 0.52266
435 4 0.161404 0.526117 0.0226603
436 4 0.338596 0.973883 0.97734
437 4 0.0885961 0.776117 0.47734
438 4 0.911404 0.223883 0.52266
439 4 0.161404 0.026117 0.0226603
440 4 0.338596 0.473883 0.97734
441 4 0.588596 0.276117 0.47734
442 4 0.411404 0.723883 0.52266
443 4 0.661404 0.526117 0.0226602
444 4 0.838596 0.973883 0.97734
445 4 0.588596 0.776117 0.47734
446 4 0.411404 0.223883 0.52266
447 4 0.661404 0.026117 0.0226602
448 4 0.838596 0.473883 0.97734
449 4 0.19369 0.163914 0.727233
450 4 0.80631 0.836086 0.272767
451 4 0.0563098 0.413914 0.772768
452 4 0.44369 0.0860857 0.227232
453 4 0.19369 0.663914 0.727233
454 4 0.80631 0.336086 0.272767
455 4 0.0563098 0.913914 0.772768
456 4 0.44369 0.586086 0.227232
457 4 0.69369 0.163914 0.727233
458 4 0.30631 0.836086 0.272767
459 4 0.55631 0.413914 0.772767
460 4 0.94369 0.0860857 0.227233
461 4 0.69369 0.663914 0.727232
462 4 0.30631 0.336086 0.272767
463 4 0.55631 0.913914 0.772768
464 4 0.94369 0.586086 0.227233
465 4 0.205183 0.19059 0.891773
466 4 0.794817 0.80941 0.108226
467 4 0.044817 0.44059 0.608226
468 4 0.455183 0.0594099 0.391774
469 4 0.205183 0.69059 0.891774
470 4 0.794817 0.30941 0.108226
471 4 0.044817 0.94059 0.608226
472 4 0.455183 0.55941 0.391774
473 4 0.705183 0.19059 0.891773
474 4 0.294817 0.80941 0.108226
475 4 0.544817 0.44059 0.608226
476 4 0.955183 0.0594099 0.391774
477 4 0.705183 0.69059 0.891774
478 4 0.294817 0.30941 0.108226
479 4 0.544817 0.94059 0.608226
480 4 0.955183 0.55941 0.391774
481 4 0.428767 0.387135 0.854318
482 4 0.571233 0.612865 0.145683
483 4 0.821233 0.637135 0.645683
484 4 0.678767 0.862865 0.354317
485 4 0.428767 0.887135 0.854317
486 4 0.571233 0.112865 0.145683
487 4 0.821233 0.137135 0.645683
488 4 0.678767 0.362865 0.354317
489 4 0.928767 0.387135 0.854318
490 4 0.0712332 0.612865 0.145683
491 4 0.321233 0.637135 0.645683
492 4 0.178767 0.862865 0.354317
493 4 0.928767 0.887135 0.854317
494 4 0.0712332 0.112865 0.145683
495 4 0.321233 0.137135 0.645683
496 4 0.178767 0.362865 0.354317
497 4 0.398483 0.354865 0.99505
498 4 0.601517 0.645135 0.00494964
499 4 0.851517 0.604865 0.504949
500 4 0.648483 0.895135 0.495051
501 4 0.398483 0.854865 0.99505
502 4 0.601517 0.145135 0.00494957
503 4 0.851517 0.104865 0.504949
504 4 0.648483 0.395135 0.49505
505 4 0.898483 0.354865 0.99505
506 4 0.101517 0.645135 0.00494983
507 4 0.351517 0.604865 0.50495
508 4 0.148483 0.895135 0.49505
509 4 0.898483 0.854865 0.99505
510 4 0.101517 0.145135 0.00494988
511 4 0.351517 0.104865 0.50495
512 4 0.148483 0.395135 0.49505
513 4 0.298079 0.449145 0.645421
514 4 0.701922 0.550855 0.354578
515 4 0.951922 0.699145 0.854578
516 4 0.548078 0.800855 0.145422
517 4 0.298079 0.949145 0.645422
518 4 0.701922 0.0508552 0.354578
519 4 0.951922 0.199145 0.854578
520 4 0.548078 0.300855 0.145422
521 4 0.798078 0.449145 0.645422
522 4 0.201922 0.550855 0.354578
523 4 0.451922 0.699145 0.854578
524 4 0.0480784 0.800855 0.145422
525 4 0.798078 0.949145 0.645422
526 4 0.201922 0.0508552 0.354578
527 4 0.451922 0.199145 0.854578
528 4 0.0480784 0.300855 0.145422
529 4 0.386643 0.392898 0.613585
530 4 0.613356 0.607102 0.386416
531 4 0.863356 0.642898 0.886416
532 4 0.636644 0.857102 0.113584
533 4 0.386644 0.892898 0.613584
534 4 0.613356 0.107102 0.386416
535 4 0.863356 0.142898 0.886416
536 4 0.636644 0.357102 0.113584
537 4 0.886644 0.392898 0.613584
538 4 0.113356 0.607102 0.386416
539 4 0.363356 0.642898 0.886416
540 4 0.136644 0.857102 0.113584
541 4 0.886644 0.892898 0.613584
542 4 0.113356 0.107102 0.386416
543 4 0.363356 0.142898 0.886416
544 4 0.136644 0.357102 0.113584
545 4 0.197745 0.461716 0.823259
546 4 0.802255 0.538284 0.176742
547 4 0.052255 0.711716 0.676742
548 4 0.447745 0.788284 0.323258
549 4 0.197745 0.961716 0.823258
550 4 0.802255 0.0382842 0.176742
551 4 0.052255 0.211716 0.676742
552 4 0.447745 0.288284 0.323258
553 4 0.697745 0.461716 0.823258
554 4 0.302255 0.538284 0.176742
555 4 0.552255 0.711716 0.676742
556 4 0.947745 0.788284 0.323258
557 4 0.697745 0.961716 0.823258
558 4 0.302255 0.0382842 0.176742
559 4 0.552255 0.211716 0.676742
560 4 0.947745 0.288284 0.323258
561 4 0.198091 0.413811 0.965506
562 4 0.801909 0.586189 0.0344934
563 4 0.0519092 0.663811 0.534494
564 4 0.448091 0.836189 0.465507
565 4 0.198091 0.913811 0.965506
566 4 0.801909 0.0861893 0.0344934
567 4 0.0519092 0.163811 0.534494
568 4 0.448091 0.336189 0.465507
569 4 0.698091 0.413811 0.965506
570 4 0.301909 0.586189 0.0344934
571 4 0.551909 0.663811 0.534493
572 4 0.948091 0.836189 0.465507
573 4 0.698091 0.913811 0.965507
574 4 0.301909 0.0861893 0.0344935
575 4 0.551909 0.163811 0.534493
576 4 0.948091 0.336189 0.465507
ITEM: TIMESTEP
1000
ITEM: NUMBER OF ATOMS
576
ITEM: BOX BOUNDS xy xz yz pp pp pp
-5.3983057081273582e+00 1.8618834129929112e+01 -1.3196859764704266e-01
-1.3751484294030072e+00 2.6407441755168886e+01 -4.3515034535513140e+00
-6.5664971701113828e-01 1.3469976399711118e+01 -7.9706185934038137e-02
ITEM: ATOMS id type xs ys zs
1 1 0.257709 0.32858 0.866666
3 1 0.00566896 0.565933 0.652087
4 1 0.47812 0.921693 0.383286
5 1 0.229598 0.824099 0.865698
8 1 0.493165 0.432458 0.375561
10 1 0.267134 0.679048 0.126039
11 1 0.521659 0.574898 0.633436
14 1 0.259484 0.179772 0.104416
15 1 0.503537 0.0627715 0.635405
17 1 0.178904 0.316115 0.707994
19 1 0.0838536 0.57277 0.809283
20 1 0.421071 0.940239 0.220574
21 1 0.161959 0.79608 0.708648
23 1 0.0675444 0.0484636 0.759914
24 1 0.426875 0.457253 0.216812
26 1 0.337138 0.710002 0.274176
27 1 0.594892 0.551325 0.783222
30 1 0.34054 0.199517 0.252828
31 1 0.578737 0.0402031 0.791394
33 1 0.280206 0.260885 0.713409
36 1 0.533369 0.985952 0.247736
37 1 0.276934 0.753382 0.725416
40 1 0.540536 0.49912 0.228114
42 1 0.214831 0.734298 0.275073
43 1 0.484237 0.506608 0.778461
44 1 0.0345357 0.985041 0.217738
46 1 0.233141 0.239543 0.273794
47 1 0.472975 0.995237 0.793181
48 1 0.0432661 0.48579 0.224367
49 1 0.320085 0.291605 0.871157
52 1 0.55242 0.950325 0.395757
53 1 0.29881 0.794155 0.871184
56 1 0.566433 0.460645 0.382517
58 1 0.188789 0.700005 0.123057
59 1 0.451203 0.546102 0.629324
60 1 0.0526009 0.954535 0.376001
62 1 0.189151 0.206973 0.117463
63 1 0.438732 0.0318034 0.639308
64 1 0.062516 0.454529 0.384245
65 1 0.330831 0.308324 0.717188
68 1 0.574203 0.937393 0.24529
69 1 0.317475 0.80331 0.718765
72 1 0.578845 0.448482 0.224468
74 1 0.190911 0.681872 0.284971
75 1 0.443912 0.554197 0.785714
76 1 0.0789049 0.935171 0.228896
78 1 0.193464 0.188146 0.274593
79 1 0.429343 0.0425462 0.79508
80 1 0.0827509 0.435242 0.233058
81 1 0.229937 0.361025 0.708824
83 1 0.0374451 0.621564 0.784432
84 1 0.462546 0.895057 0.223056
85 1 0.202487 0.844662 0.701137
87 1 0.0370147 0.0995862 0.771179
88 1 0.463745 0.407954 0.211369
90 1 0.311154 0.655381 0.289608
91 1 0.553412 0.598577 0.797761
94 1 0.300818 0.15022 0.258717
95 1 0.538022 0.0879593 0.797196
97 2 0.257052 0.338719 0.938763
99 2 0.00675719 0.560144 0.575118
100 2 0.469103 0.913961 0.451474
101 2 0.224243 0.834396 0.938318
104 2 0.483089 0.424658 0.443681
106 2 0.264789 0.667528 0.0535205
107 2 0.516642 0.590824 0.562437
110 2 0.252853 0.174379 0.0278972
111 2 0.50148 0.0727021 0.562646
113 2 0.124918 0.324215 0.66248
115 2 0.142093 0.58052 0.846096
116 2 0.366144 0.938975 0.179325
117 2 0.106778 0.795158 0.664423
119 2 0.125573 0.0474385 0.78675
120 2 0.371698 0.457886 0.168827
122 2 0.396039 0.714546 0.309505
126 2 0.398276 0.198134 0.286404
129 2 0.292477 0.23349 0.665262
132 2 0.56338 0.0142751 0.217269
133 2 0.300703 0.721053 0.69747
136 2 0.557587 0.525259 0.18541
138 2 0.186328 0.757887 0.312809
139 2 0.463798 0.476304 0.812145
140 2 0.0546447 0.0139202 0.180198
142 2 0.223671 0.266194 0.324409
143 2 0.457519 0.966739 0.834096
144 2 0.0679838 0.51337 0.192956
145 2 0.349712 0.282263 0.942771
148 2 0.583152 0.959882 0.469579
149 2 0.33595 0.790671 0.944557
152 2 0.601122 0.463769 0.457485
154 2 0.164377 0.702965 0.0507718
155 2 0.420164 0.54208 0.555129
156 2 0.0815161 0.963564 0.452172
158 2 0.153164 0.216799 0.0475264
159 2 0.405749 0.0224441 0.568199
160 2 0.0968559 0.459288 0.460251
161 2 0.372807 0.300088 0.681359
165 2 0.360736 0.802206 0.68587
170 2 0.148884 0.677051 0.325124
171 2 0.401067 0.547937 0.820836
172 2 0.124096 0.939363 0.201396
174 2 0.156118 0.192247 0.316245
175 2 0.384074 0.0386557 0.830298
176 2 0.129151 0.434328 0.203446
177 2 0.200177 0.39184 0.670197
179 2 0.0674458 0.654849 0.807335
180 2 0.424431 0.866275 0.175283
181 2 0.164383 0.872198 0.652578
183 2 0.0838269 0.122928 0.807848
184 2 0.426382 0.384375 0.163158
186 2 0.355193 0.632491 0.327211
187 2 0.588076 0.625866 0.843525
190 2 0.339203 0.122356 0.295331
191 2 0.574031 0.114824 0.836831
193 3 0.186761 0.306864 0.815764
195 3 0.0734877 0.544259 0.718717
196 3 0.417098 0.950217 0.328725
197 3 0.163968 0.792917 0.81154
199 3 0.0503367 0.038736 0.651963
200 3 0.429129 0.462401 0.323219
202 3 0.32221 0.715345 0.168237
203 3 0.58919 0.545464 0.678523
206 3 0.322337 0.212039 0.145696
207 3 0.571173 0.0334343 0.685816
209 3 0.120941 0.325842 0.837901
211 3 0.138189 0.550308 0.683987
212 3 0.345212 0.937763 0.342262
213 3 0.0937104 0.811593 0.824759
215 3 0.118031 0.0499898 0.622493
216 3 0.355872 0.453003 0.337185
217 3 0.603314 0.299191 0.805337
218 3 0.392339 0.712036 0.141626
221 3 0.599688 0.802854 0.842086
222 3 0.388238 0.200469 0.115928
225 3 0.202181 0.272667 0.667295
227 3 0.054228 0.544923 0.876797
228 3 0.451656 0.984128 0.189631
229 3 0.197117 0.754965 0.674233
231 3 0.0381153 0.0103708 0.811697
232 3 0.461652 0.498638 0.181483
234 3 0.297393 0.743787 0.319164
235 3 0.565391 0.509138 0.8244
238 3 0.31558 0.235271 0.312335
239 3 0.553777 0.000691627 0.841415
241 3 0.165902 0.268606 0.559315
243 3 0.107975 0.5098 0.938536
244 3 0.436913 0.983455 0.0824649
245 3 0.170455 0.740798 0.571311
247 3 0.0589958 0.0237404 0.916554
248 3 0.441378 0.494987 0.0730445
250 3 0.320617 0.73674 0.424972
251 3 0.585001 0.512944 0.931337
254 3 0.341947 0.219905 0.416099
255 3 0.580342 0.0098121 0.949441
257 3 0.299945 0.24452 0.813671
260 3 0.547343 0.998615 0.348741
261 3 0.294893 0.743878 0.828207
264 3 0.565685 0.509278 0.334653
266 3 0.187036 0.747888 0.169797
267 3 0.460101 0.494821 0.672823
268 3 0.0453146 0.00278789 0.318289
270 3 0.201642 0.254359 0.174684
271 3 0.44895 0.982327 0.688742
272 3 0.0579969 0.502229 0.327669
273 3 0.23984 0.215213 0.827829
275 3 0.00996519 0.462298 0.73598
276 3 0.489816 0.0323652 0.360148
277 3 0.245226 0.708024 0.85249
280 3 0.518139 0.544403 0.361443
282 3 0.225049 0.789475 0.137103
283 3 0.515018 0.461908 0.652303
286 3 0.245321 0.293619 0.148821
287 3 0.493182 0.94344 0.658437
288 3 0.00340275 0.538388 0.34529
289 3 0.368587 0.314722 0.822165
292 3 0.596236 0.921495 0.347241
293 3 0.345017 0.819042 0.818179
296 3 0.605276 0.432884 0.326394
298 3 0.159551 0.664744 0.179268
299 3 0.406371 0.571753 0.682991
300 3 0.0986217 0.92618 0.330836
302 3 0.154542 0.176481 0.172215
303 3 0.391506 0.0575249 0.689015
304 3 0.10714 0.426449 0.339009
305 3 0.405561 0.360683 0.866661
309 3 0.391403 0.859664 0.874282
310 3 0.587488 0.148994 0.11843
314 3 0.109428 0.628868 0.113446
315 3 0.357492 0.609058 0.621917
316 3 0.136797 0.883028 0.382094
318 3 0.092353 0.146758 0.106154
319 3 0.334826 0.0901661 0.626376
320 3 0.156748 0.391265 0.401208
321 3 0.28385 0.347297 0.660133
324 3 0.526203 0.900904 0.181584
325 3 0.261781 0.836227 0.656602
328 3 0.522037 0.41562 0.163083
330 3 0.255141 0.655175 0.339927
331 3 0.497024 0.588885 0.848301
332 3 0.0304467 0.89769 0.167564
334 3 0.249526 0.151159 0.318854
335 3 0.479475 0.0798635 0.846203
336 3 0.0300935 0.397063 0.180449
337 3 0.326376 0.390552 0.638637
340 3 0.567122 0.85438 0.187779
341 3 0.292686 0.883626 0.632447
344 3 0.551296 0.369125 0.131752
346 3 0.235155 0.603935 0.363258
347 3 0.460707 0.635189 0.865501
348 3 0.0667911 0.85015 0.159711
350 3 0.211108 0.102044 0.318694
351 3 0.441138 0.126165 0.858461
352 3 0.0671577 0.349752 0.180768
353 3 0.263791 0.374872 0.813667
355 3 0.00897891 0.617991 0.678569
356 3 0.48186 0.875957 0.329313
357 3 0.22797 0.866973 0.801535
359 3 0.000976666 0.11828 0.673968
360 3 0.489881 0.389984 0.313192
362 3 0.280806 0.63573 0.191507
363 3 0.527182 0.617583 0.69747
366 3 0.267472 0.132486 0.156686
367 3 0.508281 0.107949 0.698266
369 3 0.228921 0.418046 0.845594
371 3 0.0491776 0.648123 0.624032
372 3 0.430688 0.837127 0.344624
373 3 0.180292 0.908039 0.817258
375 3 0.0419084 0.158257 0.645918
376 3 0.449199 0.346433 0.331955
378 3 0.328272 0.598437 0.167737
379 3 0.564662 0.661262 0.671851
382 3 0.31507 0.0967738 0.128484
383 3 0.559051 0.14671 0.677073
385 4 0.057988 0.320275 0.777759
387 4 0.195495 0.570669 0.734835
388 4 0.290079 0.932355 0.267389
389 4 0.0351383 0.804997 0.755645
391 4 0.174973 0.0673999 0.683272
392 4 0.305981 0.431111 0.272795
393 4 0.549347 0.303248 0.730576
394 4 0.44952 0.696796 0.203127
397 4 0.540299 0.802954 0.776234
398 4 0.439746 0.176706 0.174244
401 4 0.126689 0.34187 0.922243
403 4 0.137066 0.530501 0.60499
404 4 0.333159 0.941112 0.423832
405 4 0.0894694 0.833713 0.90006
407 4 0.119388 0.0388126 0.538571
408 4 0.343307 0.462928 0.415747
409 4 0.589007 0.289319 0.884256
410 4 0.391694 0.720857 0.0555399
413 4 0.600004 0.806115 0.930688
414 4 0.396461 0.213458 0.0362213
417 4 0.179832 0.22894 0.523861
419 4 0.0838369 0.483307 0.993864
420 4 0.449 0.0228043 0.0433016
421 4 0.179743 0.697166 0.547497
423 4 0.0249487 0.00252576 0.967284
424 4 0.448385 0.532437 0.0238862
426 4 0.302189 0.768117 0.477519
427 4 0.571397 0.476756 0.977663
430 4 0.326073 0.246269 0.480777
431 4 0.565549 0.977942 0.00489309
433 4 0.109157 0.294373 0.521137
435 4 0.174737 0.50936 0.945355
436 4 0.399879 0.947278 0.0357615
437 4 0.129673 0.769968 0.508349
439 4 0.115085 0.0510756 0.950338
440 4 0.405365 0.458 0.0313812
442 4 0.369467 0.704786 0.465001
445 4 0.605801 0.772991 0.523537
446 4 0.382768 0.182499 0.436977
449 4 0.217141 0.17719 0.774482
451 4 0.0506571 0.442069 0.811826
452 4 0.472268 0.0706084 0.308102
453 4 0.229712 0.668932 0.803446
455 4 0.00659995 0.933501 0.698841
456 4 0.485253 0.576009 0.301041
458 4 0.254283 0.823915 0.195735
459 4 0.532298 0.424298 0.70655
462 4 0.286191 0.318971 0.21829
463 4 0.507871 0.903341 0.705243
465 4 0.213796 0.222822 0.898363
467 4 0.0134222 0.451677 0.652663
468 4 0.471121 0.0303241 0.436828
469 4 0.213432 0.718425 0.916019
472 4 0.50787 0.539992 0.444282
474 4 0.236483 0.787088 0.0550672
475 4 0.533424 0.466755 0.576062
478 4 0.238923 0.300732 0.0603614
479 4 0.522721 0.951804 0.593281
481 4 0.438678 0.387152 0.821709
485 4 0.403204 0.896814 0.829018
486 4 0.565583 0.1154 0.163171
490 4 0.0843928 0.594284 0.152772
491 4 0.318801 0.633724 0.661439
492 4 0.160278 0.850949 0.336645
494 4 0.05657 0.119303 0.146374
495 4 0.317937 0.129769 0.663824
496 4 0.180448 0.357383 0.356804
497 4 0.410779 0.370058 0.955337
498 4 0.591164 0.642942 0.0236559
501 4 0.412913 0.858 0.966588
502 4 0.573527 0.148416 0.0276887
506 4 0.107667 0.627065 0.0241533
507 4 0.358875 0.616849 0.535257
508 4 0.13869 0.875041 0.469303
510 4 0.0826743 0.144846 0.0162013
511 4 0.306677 0.0830173 0.53647
512 4 0.16031 0.386562 0.488967
513 4 0.325484 0.431766 0.680567
516 4 0.557796 0.820519 0.242454
517 4 0.264937 0.923809 0.648319
520 4 0.540631 0.326951 0.161875
522 4 0.273682 0.569068 0.347329
523 4 0.462357 0.675055 0.819063
524 4 0.0514767 0.811995 0.199865