LAMMPS data file via write_data, version 15 Apr 2020, timestep = 80000

576 atoms
4 atom types

-6.3975970911224067e-01 1.8343760182112629e+01 xlo xhi
-1.4104809486355858e+00 2.6522480460335601e+01 ylo yhi
-6.6198682832188194e-01 1.3475313511021863e+01 zlo zhi
-1.1293739359192041e+00 -4.9645190842931042e+00 -3.0339336393676164e+00 xy xz yz

Masses

1 12.0107
2 1.00794
3 14.0067
4 15.9994

Atoms # full

23 1 1 8.4304195592502185e-02 1.4258953310528520e+01 -2.6447259518407682e+00 1.0586318085759235e+01 -1 0 0
213 1 3 4.0696076903132383e-01 1.3872881384736058e+01 1.6531365067408686e+01 9.1942823041005184e+00 -1 0 0
243 1 3 4.4352539068738411e-01 -5.1616165263652611e+00 1.0070047576130918e+01 1.3280858756425108e+01 0 0 0
432 1 4 -2.4319395127492821e-01 -3.1655856057448579e+00 1.4504277319037152e+01 7.1239451672160241e+00 1 0 0
510 1 4 -2.9524287284154799e-01 7.6050165281629911e-01 4.4681465943842316e+00 -1.4327047206426180e-01 0 0 0
48 1 1 8.6316735100626804e-02 -2.3716485945943564e+00 1.0905369915073205e+01 7.3048308522581893e+00 0 0 0
247 1 3 4.3442086175840855e-01 -3.1871003204873212e+00 -1.1900849444198296e+00 1.1983066784544313e+01 0 0 0
144 1 2 2.3824401629779318e-01 -2.8100422822775482e+00 1.0948264334294288e+01 8.3053398647953571e+00 0 0 0
304 1 3 -2.4668763754965267e-01 -1.5203412743406295e+00 8.8674390629980326e+00 6.2489088326908293e+00 0 0 0
318 1 3 4.5788877939200090e-01 1.0002098996280571e+00 3.6992628061190498e+00 8.6433518625061345e-01 0 0 0
506 1 4 -2.9047735842572764e-01 1.1014309715288562e+00 1.8635447611198394e+01 -2.0877974533690508e-01 0 0 0
96 1 1 8.9973414210783420e-02 -2.9374111421703564e-01 1.1362599259517864e+01 5.4289560484785451e+00 1 0 0
192 1 2 2.5064822290245226e-01 6.1639748258971139e-01 1.1919493714469031e+01 5.0566502520139274e+00 1 0 0
240 1 3 -2.0167078081411655e-01 -2.0935509313821221e+00 1.2328671537489747e+01 6.7949482982683298e+00 1 0 0
87 1 1 8.4483492680040337e-02 -3.9845049029241197e+00 -2.6872580727892226e+00 9.2338729588352706e+00 0 0 0
332 1 3 -2.2994586085403931e-01 1.6566732049945614e+01 2.2637775662274237e+01 4.0829639350455338e-01 -1 0 0
336 1 3 -2.1091961451220295e-01 8.6238429051345378e-02 1.0742079413128286e+01 6.7710359352511240e+00 0 0 0
348 1 3 4.4808047466312212e-01 1.1982067469737972e+01 1.8681629023864609e+01 1.3393168793654851e+01 -1 0 -1
519 1 4 -2.1078539551171416e-01 -1.7334501780221108e+00 -2.5238242375053543e+00 7.4127323318560334e+00 1 0 0
5 1 1 8.0037754114218387e-02 -3.7580979509442454e+00 1.8414069291930517e+01 1.0307894182944647e+01 0 0 0
21 1 1 7.0530236513609373e-02 -3.1474203818542481e+00 1.7754120562774744e+01 8.1057467871567503e+00 0 0 0
80 1 1 9.4172774078944213e-02 -1.1248472722564409e+00 9.9754887320896586e+00 7.2220090618308515e+00 0 0 0
85 1 1 8.3523773045002858e-02 -3.3846785267209683e+00 1.9295448801592670e+01 8.1789999888528264e+00 0 0 0
101 1 2 2.3739022561981785e-01 -4.4973087566873486e+00 1.8227964672410863e+01 1.1111528249966597e+01 0 0 0
117 1 2 2.3331216435293300e-01 -3.7292367415772425e+00 1.7332680939532487e+01 7.2731144812909534e+00 0 0 0
119 1 2 2.4333543559817949e-01 -4.4030874924469376e+00 -3.5228945419747939e+00 1.1277242596149897e+01 0 0 0
158 1 2 2.5006828882190835e-01 1.2807804769866487e+00 5.5955590800933255e+00 2.3150996859696482e+00 0 0 0
174 1 2 2.6035929594427248e-01 2.0227936575707086e+00 1.6860804656697601e+00 2.2295659097902538e+00 0 0 0
176 1 2 2.5010477384596230e-01 -9.6186459600380259e-01 9.4962467804751380e+00 8.1713523981780902e+00 0 0 0
183 1 2 2.4948591581272586e-01 -4.3923248801027199e+00 2.4391665811225508e+01 9.1066548155897848e+00 0 -1 0
197 1 3 -2.2406149964813815e-01 -3.7527430044781456e+00 1.7174245399194177e+01 9.4209201301670085e+00 0 0 0
302 1 3 -2.4116671245189233e-01 2.1607719824192908e+00 3.8684143730521301e+00 1.8207441870525587e+00 0 0 0
314 1 3 4.4255909643783825e-01 8.1930303157444562e-01 1.7415299430621694e+01 3.7936538321262647e-03 0 0 0
320 1 3 4.6270117663568555e-01 -1.7405653540922437e+00 7.4845283302983123e+00 6.8055895279636234e+00 0 0 0
490 1 4 -3.1364983519230527e-01 -3.9936594644976309e-01 1.7022255647629464e+01 -2.5043156205872513e-01 0 0 0
496 1 4 -2.3567067017199628e-01 -1.1633619237190382e+00 7.1182759102507482e+00 7.9103754165455351e+00 0 0 0
524 1 4 -3.1341987604670796e-01 -5.7597794948500445e+00 1.8372567663282325e+01 1.3304593552036284e+01 0 0 -1
540 1 4 -2.8882603967923343e-01 1.1244802785335738e+01 1.8557266792696083e+01 1.2334045845568387e+01 -1 0 -1
92 1 1 8.4148450672698855e-02 -2.0480775634413302e+00 2.2093806746848564e+01 1.8007931666121606e+00 1 0 0
188 1 2 2.5197479379139198e-01 -2.4656442062801345e+00 2.1123692313790485e+01 1.9515054937682148e+00 1 0 0
368 1 3 -2.1281095933556582e-01 -5.2650280020894691e-01 1.0352032519890054e+01 4.2980847557335577e+00 1 0 0
423 1 4 -2.3442732121656898e-01 -2.3325723211720608e+00 -2.1917351271719325e+00 1.1935110123515379e+01 0 1 0
32 1 1 8.2590122673481869e-02 -1.5615416479421385e+00 1.2284063041006796e+01 5.4116864137445724e+00 1 0 0
128 1 2 2.5096914367367934e-01 -1.3235911062452672e+00 1.3314034372190717e+01 5.0638307290893989e+00 1 0 0
256 1 3 4.2537805039776427e-01 -3.3196278339328238e+00 1.3245626677060644e+01 6.9376326544445437e+00 1 0 0
435 1 4 -3.0131377930446557e-01 -4.1346899944469051e+00 1.0725109237264158e+01 1.2937184239813771e+01 0 0 -1
327 1 3 -2.0564380842976676e-01 -3.1229153792623290e+00 -1.4359464936965094e+00 9.0853382341897877e+00 1 0 0
343 1 3 4.2231515319933832e-01 -2.3624118750387977e+00 -1.4339815576569477e+00 7.8053764536213004e+00 1 0 0
439 1 4 -3.4585491134622337e-01 -2.7255059091588647e+00 -2.4167262584507743e-02 1.2367789556734021e+01 0 0 -1
535 1 4 -1.9581828224284259e-01 -2.1968042076511933e+00 -3.6673698750671169e-01 7.0729218667880360e+00 1 0 0
352 1 3 4.1475215469562193e-01 1.3567583371095782e+00 9.8911732664859322e+00 6.7002819297650298e+00 0 0 0
46 1 1 9.4398079530362583e-02 1.9050460257567963e+00 2.8628823994363017e+00 4.0906462529262111e+00 0 0 0
53 1 1 8.9250035899808941e-02 -2.3528863818893089e+00 1.8685521639882445e+01 1.0979694829852956e+01 0 0 0
58 1 1 8.4503853007605517e-02 3.0984495804318990e+00 1.6471239694554129e+01 -1.1780374338821653e-01 0 0 0
62 1 1 9.4086646876987812e-02 1.8833079259549430e+00 4.9193791895899963e+00 2.8979399297073538e+00 0 0 0
78 1 1 1.0256693024153593e-01 2.4888811713840449e+00 2.6206852785130881e+00 2.6630232945227634e+00 0 0 0
113 1 2 2.5087549368360895e-01 8.6881462085243832e-02 5.0457263492408124e+00 1.0116479117512661e+01 0 0 0
142 1 2 2.5583438066498160e-01 1.1436756387444502e+00 2.1390137327409855e+00 4.4400398516817630e+00 0 0 0
149 1 2 2.2577784525217306e-01 -2.4284448611529297e+00 1.8629970186679827e+01 1.2091394938003848e+01 0 0 0
154 1 2 2.4478506791386562e-01 -2.0053700187860026e+00 1.3411034732972725e+01 1.2913249375483495e+01 0 0 -1
229 1 3 -1.8477054514775587e-01 -1.6806174066432673e+00 1.7366319319912357e+01 7.9983649914340598e+00 0 0 0
245 1 3 3.8055369651734089e-01 -1.1362979178522288e+00 1.7613941283716557e+01 6.5715144417471540e+00 0 0 0
270 1 3 -2.2120846445688133e-01 1.0859420606957562e+00 4.1482464628434794e+00 3.9313670140326780e+00 0 0 0
277 1 3 4.4429093921481150e-01 -1.6953656996822470e+00 1.6236155097450442e+01 1.0643984297817845e+01 0 0 0
298 1 3 -2.2542081735950581e-01 1.8360417080696045e+00 1.6535118952754161e+01 6.6563992469074451e-01 0 0 0
350 1 3 4.5795821319798896e-01 4.4551457624740571e+00 2.1552649643772059e+00 1.2943241128355243e+00 0 0 0
385 1 4 -2.2713369869730976e-01 -2.0649237495700419e+00 5.1586719839368200e+00 1.0718458854980028e+01 0 0 0
449 1 4 -2.2015607835339718e-01 -1.8807757202884368e-01 1.7059529428693785e+00 8.5530803513295410e+00 0 0 0
469 1 4 -3.0092567259246195e-01 -2.5932032456599972e+00 1.5937783778008521e+01 1.1566166958033254e+01 0 0 0
478 1 4 -2.5149161465803538e-01 2.6544662874645608e-01 6.0695703309201106e+00 5.1133022617517998e+00 0 0 0
522 1 4 -3.0935569667417140e-01 1.3804243574777693e+00 1.4481730607348048e+01 4.3136060480802643e+00 0 0 0
526 1 4 -2.2509461906509343e-01 4.9464905685670777e+00 9.9418417134316384e-01 9.1789106436531864e-01 0 0 0
528 1 4 -2.7334393324726858e-01 1.6905332366728483e+00 9.1767492979706162e+00 7.7454904687759365e+00 0 0 0
538 1 4 -2.5503947564056129e-01 1.1868905162313292e-01 1.5604158004778990e+01 2.8094021739513098e+00 0 0 0
554 1 4 -1.5716243008646330e-01 3.5458750040311013e+00 1.2045594499700721e+01 7.0691816615019976e-01 0 0 0
209 1 3 4.1812060420502828e-01 -1.9810897435132246e+00 3.8772688600087530e+00 1.0591762199096387e+01 0 0 0
286 1 3 4.5077665231637776e-01 7.1345196024609159e-01 4.8647039061450545e+00 5.2360673981728798e+00 0 0 0
421 1 4 -1.8548087711607969e-01 -1.7002168217439095e+00 1.6993472109888380e+01 5.5744091722609257e+00 0 0 0
401 1 4 -2.5407427772072311e-01 -3.0679732796294115e+00 3.1900777990031202e+00 1.0364410809313760e+01 0 0 0
465 1 4 -3.1534117504460379e-01 -1.1931770549632370e+00 1.3959312306093574e-01 9.8064302020003105e+00 0 0 0
448 1 4 -2.1782538626364689e-01 1.4516127977143341e+01 1.2714882519672230e+01 7.2602064905527586e+00 0 0 1
544 1 4 -2.7163842985382308e-01 2.1282042747000056e+00 9.9950214157612258e+00 5.6770916557027569e+00 0 0 0
170 1 2 2.5013425513248744e-01 1.4318950257617273e+00 1.7847628644199631e+01 2.4809469435946103e+00 0 0 0
225 1 3 -1.9505332795896460e-01 1.5586552872920381e+00 3.4501598912035547e+00 9.7258164763193591e+00 0 0 0
241 1 3 3.9836393651929652e-01 2.7382484688026167e+00 4.3675017293900282e+00 9.3751516604361491e+00 0 0 0
272 1 3 -2.2296393479429039e-01 -3.4479604217775597e+00 1.0202712724703906e+01 6.4383379566925543e+00 0 0 0
334 1 3 -2.2765561050980906e-01 3.9820094448210206e+00 2.3456042431257402e+00 2.7264302810242773e+00 0 0 0
346 1 3 4.7309700815303596e-01 1.2165946514709702e+00 1.5417581207749818e+01 3.4713742853815681e+00 0 0 0
417 1 4 -2.2037008980769959e-01 3.0835325074764204e+00 4.6068108672325767e+00 8.1557328469235166e+00 0 0 0
437 1 4 -2.3834309135969414e-01 4.1294791713502033e-02 1.8113299148940214e+01 6.4297269573715976e+00 0 0 0
453 1 4 -2.4626404972297541e-01 -1.0609884023885927e+00 1.5290683318679504e+01 9.9879556632350983e+00 0 0 0
491 1 4 -2.4472579703992703e-01 3.4283711009069400e+00 7.8367870516220535e+00 1.1493360402736837e+01 0 0 0
572 1 4 -2.6019420231314772e-01 -7.5471348808395300e-01 1.9677040957457379e+01 2.4430139788260630e+00 1 0 0
14 1 1 7.3845590966186217e-02 3.2033755112977724e+00 5.6060771768972737e+00 3.3943131153505082e+00 0 0 0
37 1 1 7.7506118949081437e-02 -9.0941722239279610e-01 1.8054621817613132e+01 9.1314307721474215e+00 0 0 0
74 1 1 9.3928374424041464e-02 2.2415745713839517e+00 1.7214180860856345e+01 2.0151067499178912e+00 0 0 0
94 1 1 8.1507196059622491e-02 4.5359509711563906e+00 3.5815129324586970e+00 3.3898658624739690e+00 0 0 0
106 1 2 2.5854271664127848e-01 4.2422581583165329e+00 1.4667428750334759e+01 -5.7129072545636306e-01 0 0 0
110 1 2 2.3163377218134415e-01 3.1371440453292889e+00 6.7111877820772587e+00 3.1890907746300181e+00 0 0 0
261 1 3 -2.1885933035488703e-01 -1.2164035269131772e+00 1.7651152559628265e+01 1.0578113150604402e+01 0 0 0
266 1 3 -2.1782583257537827e-01 3.6422195300448701e+00 1.7930703446019230e+01 1.8646741745626672e-01 0 0 0
273 1 3 4.4508856165730465e-01 -1.9139761400069411e-01 9.6121832560246956e-01 9.6279013376387681e+00 0 0 0
330 1 3 -2.5165708772085205e-01 2.4688439092113121e+00 1.6192248813598141e+01 3.0932747631555655e+00 0 0 0
362 1 3 -2.1712135670094770e-01 3.3239434604366007e+00 1.4427925567906728e+01 1.3735087077983761e+00 0 0 0
366 1 3 -2.2249856571639970e-01 4.3498495670963848e+00 4.9455065250567278e+00 2.6352431077961249e+00 0 0 0
574 1 4 -3.0303745405345683e-01 5.6752435824668215e+00 6.9857551444386736e+00 2.2449884609249926e+00 0 0 0
462 1 4 -2.2551340792246255e-01 7.0973420349675154e-01 4.2826666115670209e+00 6.3837906361749308e+00 0 0 0
17 1 1 9.9240276083289169e-02 5.0488761971546392e-01 4.1274669763770211e+00 1.0573294367715853e+01 0 0 0
133 1 2 2.5869440530376092e-01 1.7105789355567236e-01 1.7876289106397500e+01 8.9984206505832880e+00 0 0 0
193 1 3 -2.5982530828330630e-01 -6.6830054863412203e-01 3.1954936390141278e+00 1.0795361447607490e+01 0 0 0
571 1 4 -2.6641727445366536e-01 3.1518718094504705e+00 1.2978759207979468e+01 6.5697414454603740e+00 0 0 0
1 1 1 7.7462797344505091e-02 -5.0148080352427371e-01 2.5410033297575079e+00 1.2134925472428648e+01 0 0 0
10 1 1 7.3800402816361924e-02 4.0212559378356794e+00 1.5270484157821832e+01 3.0639528531694304e-01 0 0 0
206 1 3 -2.0873805765337067e-01 3.3870235439982168e+00 5.3312741150018557e+00 4.8435289405057338e+00 0 0 0
238 1 3 -2.1049279337599086e-01 2.9585099055111743e+00 2.8424859687692079e+00 5.1884132011079540e+00 0 0 0
254 1 3 4.1324577838242976e-01 3.6454473707479957e+00 1.5104190620750613e+00 5.4411308138140111e+00 0 0 0
282 1 3 4.1279416154447812e-01 5.0245749676233302e+00 1.8304330755426776e+01 -3.4994426360215697e-01 0 0 0
347 1 3 4.8788837897043663e-01 5.3212656619484644e-01 1.1763102835140534e+01 1.0779715697775416e+01 0 0 0
351 1 3 4.3901394067825217e-01 1.8134852000770483e+00 -2.0001442024210672e+00 9.7197253854678713e+00 0 0 0
378 1 3 3.8608657648408756e-01 3.8349004982959589e+00 1.3002201647498053e+01 1.5158174648778724e+00 0 0 0
446 1 4 -3.0600795712554890e-01 4.2325149101123323e+00 1.2178296337852679e+00 6.5803740075706756e+00 0 0 0
474 1 4 -2.1404085388371813e-01 3.9706140655925548e-01 1.5095089696906426e+01 1.2514362240917066e+01 0 0 -1
523 1 4 -3.4367140115278844e-01 1.8085993274439360e-01 1.0998990556871728e+01 9.7877030160326761e+00 0 0 0
527 1 4 -3.1781302134918166e-01 2.1384312577802831e+00 -7.5232060734976525e-01 9.5044554014320077e+00 0 0 0
539 1 4 -3.6926690993586753e-01 -3.6957949243800226e-01 1.2192898561642215e+01 1.1610086532148948e+01 0 0 0
543 1 4 -2.0790470735709715e-01 5.3009694490337100e-01 -2.3465126989475915e+00 9.7851434739519441e+00 0 0 0
570 1 4 -2.6444476105070935e-01 4.4127782878573765e+00 1.2662575017355344e+01 2.6424298752356639e+00 0 0 0
97 1 2 2.2957158831052160e-01 -1.4658265426820174e+00 2.2175200789987790e+00 1.2579994793688531e+01 0 0 0
545 1 4 -2.1262807159309904e-01 -7.0148230318580307e-01 6.0658288212354030e+00 1.3365408234263843e+01 0 0 0
208 1 3 -2.1889787689857296e-01 -2.5933576520042902e+00 1.1687643203105216e+01 4.3823591563597626e+00 1 0 0
542 1 4 -3.5190446981893730e-01 4.5507682563755507e+00 3.1934206576106057e+00 5.3008482252768307e-01 0 0 0
556 1 4 -2.9650155889028523e-01 1.1631603373863446e+00 2.0657890478797093e+01 3.0597201573126922e+00 1 0 0
480 1 4 -2.8310114909676654e-01 -3.9285146125856021e+00 8.8154141043985188e+00 8.3362543186437890e+00 1 0 0
288 1 3 4.2851554599173558e-01 1.4587169241702007e+01 9.3839162390853765e+00 7.2601301264976490e+00 0 0 0
382 1 3 4.2735208035895267e-01 5.6161783469306279e+00 5.7599073523989706e+00 2.6773206039799256e+00 0 0 0
558 1 4 -2.8630542831366967e-01 6.6105117938501952e+00 5.1891859421035669e+00 3.2973923557077818e+00 0 0 0
129 1 2 2.2784607909646803e-01 2.8558378257692985e+00 1.6919926927374331e+00 9.8590324538291298e+00 0 0 0
408 1 4 -2.4588925956380522e-01 5.9835077962787153e+00 9.0511872528977513e+00 4.3988535589421094e+00 0 0 0
30 1 1 7.4993629553829932e-02 4.0179974738653366e+00 3.8552756277603368e+00 4.8072755731155983e+00 0 0 0
33 1 1 9.6534446569942201e-02 1.9817572745776921e+00 2.1614603481434642e+00 1.0415578979389139e+01 0 0 0
42 1 1 9.7020648130489454e-02 3.5196978125285434e+00 1.8023816993669222e+01 1.6781714831856078e+00 0 0 0
81 1 1 8.6368000504560102e-02 1.0508047209497553e+00 4.3914583203765662e+00 1.2051153328899414e+01 0 0 0
90 1 1 7.4852346197761571e-02 3.6380813237197671e+00 1.5289307092953161e+01 2.5866787479861335e+00 0 0 0
126 1 2 2.5331298680481867e-01 4.8197910257614911e+00 3.6400408710414069e+00 5.5608812947567916e+00 0 0 0
138 1 2 2.5118269469717247e-01 3.3916574720754604e+00 1.9151641055717107e+01 1.8164804176460776e+00 0 0 0
177 1 2 2.5642136217991413e-01 1.1336975097429693e+00 5.4935545319173746e+00 1.2286215377140131e+01 0 0 0
186 1 2 2.5039700411502480e-01 3.7270762477368762e+00 1.4613565254765076e+01 3.4925577935100538e+00 0 0 0
190 1 2 2.5293528760835560e-01 5.6090824037190572e+00 3.3211569467109374e+00 3.4026206250381392e+00 0 0 0
222 1 3 4.3321529466750697e-01 4.2312559362050681e+00 6.3048086742854244e+00 5.6384674040187299e+00 0 0 0
257 1 3 -2.1323115889793917e-01 9.3666402996179787e-01 1.0728077732266739e+00 1.0606176980799251e+01 0 0 0
303 1 3 -1.9664161047136547e-01 2.8307981638008672e+00 -2.0827225958258522e+00 6.8678131995071263e+00 0 0 0
363 1 3 -2.3824654450760119e-01 2.7683431091455390e+00 1.1888068799403911e+01 8.6896512333871598e+00 0 0 0
379 1 3 4.0631087960480300e-01 2.2861230433045452e+00 1.2654481522670446e+01 7.4758956288932135e+00 0 0 0
398 1 4 -2.9197126940014184e-01 5.5287810133911925e+00 6.1423308170179860e+00 5.7001435450315290e+00 0 0 0
430 1 4 -3.1227016869323365e-01 3.5311941324165628e+00 5.7212310622967899e-01 4.5645046378754444e+00 0 0 0
26 1 1 8.1739820140706437e-02 4.9103300731305239e+00 1.6094060845548142e+01 2.3296178518890143e+00 0 0 0
49 1 1 8.1311274008473433e-02 4.3453432088293908e-01 1.2946755024365486e+00 1.2046957594525445e+01 0 0 0
63 1 1 1.0571066656175138e-01 4.2513591472578547e+00 -2.3173929275162068e+00 6.4381504575271462e+00 0 0 0
145 1 2 2.5842692724629474e-01 -1.2330789702173917e-01 3.3045829382159653e-01 1.2291150913070553e+01 0 0 0
159 1 2 2.4764517545467649e-01 4.4610175733926463e+00 -1.7642644443298319e+00 5.5254164614227301e+00 0 0 0
202 1 3 -2.3174037540227890e-01 5.3350066619531420e+00 1.5763245487067222e+01 8.6952324429668182e-01 0 0 0
234 1 3 -2.0064841262911168e-01 4.6966837177336931e+00 1.7576191527342885e+01 2.5181224001124658e+00 0 0 0
289 1 3 -2.0141737783830244e-01 1.6714161245747716e+00 1.4785507236060091e+00 1.2842893998997450e+01 0 0 0
335 1 3 -2.1261058263271787e-01 2.9184864929951795e+00 -2.9291767096163506e+00 9.2919365380233216e+00 0 0 0
353 1 3 -2.4516794977234216e-01 9.4143395917418715e-02 3.7598558972564486e+00 1.2981030586087563e+01 0 0 0
369 1 3 4.0668695649698017e-01 4.0493098458136361e+00 7.8052140737325661e+00 -6.0299547724535985e-01 0 0 1
410 1 4 -3.9497687000362658e-01 6.4174528165394564e+00 1.3939264954635453e+01 -2.7486684479142737e-01 0 0 0
414 1 4 -2.0532169892867130e-01 3.6152522144001513e+00 7.2344113656125568e+00 6.3147401970380699e+00 0 0 0
426 1 4 -3.0377708526139913e-01 5.0114185901069241e+00 1.7143049721803813e+01 4.9294684725980229e+00 0 0 0
458 1 4 -2.0004592315153100e-01 5.7791096917466582e+00 1.9050420886869418e+01 3.6886080780285280e-01 0 0 0
555 1 4 -3.1135776059883485e-01 1.0764921009124691e+00 1.3101414003501436e+01 7.4511456870527217e+00 0 0 0
561 1 4 -2.5519081228234008e-01 2.9225410340161999e+00 7.4191811507141701e+00 -1.6347605223382056e-01 0 0 1
64 1 1 1.0205550178613945e-01 -2.6745529161691048e+00 9.3904297470997484e+00 5.4420664785923947e+00 0 0 0
464 1 4 -3.0055913671836093e-01 1.3340430698508444e+01 9.2414655943805570e+00 6.9182917753922615e+00 0 0 0
79 1 1 6.8894525187968583e-02 1.5836032915109164e+00 2.4580492252720070e+01 7.8673308302930787e+00 0 -1 0
512 1 4 -2.8177284262841568e-01 -2.6153965196884816e+00 6.7028810728216985e+00 6.2638175668691352e+00 0 0 0
231 1 3 -2.2911692341604814e-01 -4.5527916645586002e+00 -1.3896754616434634e+00 1.1377730905728399e+01 0 0 0
405 1 4 -1.7354448470333261e-01 1.3692875135551464e+01 1.5317004092385107e+01 9.6535285412854179e+00 -1 0 0
167 1 2 2.4883766800453891e-01 -3.4831834953216108e+00 6.8207005652257369e-01 8.8769718401402500e+00 1 0 0
236 1 3 -2.1395074425658350e-01 1.5692859593057022e+01 2.4284511258517320e+01 2.1578340690612143e+00 0 0 0
373 1 3 4.6308584012662879e-01 1.3346001069258774e+01 1.9671043765013636e+01 9.2107600342953155e+00 -1 0 0
28 1 1 8.1934063169149710e-02 -2.5358102201308794e+00 2.3126331378302218e+01 2.8255233484606692e+00 1 0 0
181 1 2 2.4933399904223075e-01 -3.9066394153407846e+00 1.9668534024878184e+01 7.2836945796388575e+00 0 0 0
357 1 3 -2.1540218511352863e-01 -4.1332455686528675e+00 1.9589936888150284e+01 9.4389897557293843e+00 0 0 0
124 1 2 2.3115109092698474e-01 1.5691427896045361e+01 2.2639116178233174e+01 3.5482160447357325e+00 0 0 0
325 1 3 -2.4870186814092840e-01 -2.0897244455623660e+00 2.0096623771395166e+01 8.0256525428810583e+00 0 0 0
364 1 3 -2.2635349238483288e-01 -5.2289155810418597e-01 2.2051532133534266e+01 1.9766416379729081e+00 1 0 0
172 1 2 2.3156717372710886e-01 1.1881218600714615e+01 2.1319068596955518e+01 1.3224963888311812e+01 -1 0 -1
44 1 1 8.4206045504970004e-02 -2.3473019546597254e+00 2.5020199353955554e+01 1.2319798711700354e+00 0 0 0
76 1 1 9.1823476858946984e-02 -1.8513646511164026e+00 2.4054193850196853e+01 1.4816271198036346e-01 0 0 0
412 1 4 -3.0370865533931996e-01 -1.9789413905106410e+00 2.1439489550894258e+01 4.9469326844697417e+00 1 0 0
492 1 4 -3.0852798766848943e-01 -4.9270787714824626e+00 2.3183383268405102e+01 1.3326652346538289e+01 0 0 -1
220 1 3 4.2829245206641697e-01 -1.1701019622488522e+00 2.2469623270908890e+01 4.8567570755665743e+00 1 0 0
380 1 3 4.2868326349830538e-01 -3.4270080098752764e-02 2.0733343842093134e+01 2.5495725696831300e+00 1 0 0
69 1 1 9.7455426835412140e-02 -1.2097349954091294e+00 1.9633114163001032e+01 9.1697509690555066e+00 0 0 0
293 1 3 -2.1477146224857641e-01 -1.7739554139125544e+00 1.9939909336797072e+01 1.0516411092813193e+01 0 0 0
508 1 4 -2.8742339797773947e-01 -4.2895279984049068e+00 2.1303457635936532e+01 1.2267031704994139e+01 0 0 -1
165 1 2 2.3772060299867770e-01 -2.3202965333286762e-01 2.0167715724468806e+01 9.1010544995127880e+00 0 0 0
501 1 4 -2.8365305345091973e-01 4.5987879979465074e-01 1.9840306684531846e+01 1.1583240758902338e+01 0 0 0
511 1 4 -1.9767211291805370e-01 6.6642924961368610e-01 -1.7333663669646155e+00 5.8123122715576567e+00 0 0 0
319 1 3 4.1988721605211438e-01 1.8239491443074014e+00 -2.2771040914773826e+00 5.7670067161271064e+00 0 0 0
565 1 4 -2.4579269113426702e-01 1.2603905383875199e+01 2.0069099839348823e+01 1.0184427006526569e+01 -1 0 0
252 1 3 3.8842425912972584e-01 1.5166941298566551e+01 2.5198673924611789e+01 3.2658754273798483e+00 0 0 0
436 1 4 -2.6269498255255952e-01 2.0910634417531995e+00 -3.4236175213666620e+00 1.2388212154920499e+01 0 1 0
494 1 4 -3.6599303728328603e-01 1.2598614280457321e-01 2.8293102155955046e+00 1.2413955612773755e+00 0 0 0
384 1 3 4.2195517347283040e-01 1.6534199533108795e-01 1.0703722839666082e+01 2.9935040235702899e+00 1 0 0
560 1 4 -2.9132877538253044e-01 4.1633912292696684e-01 1.1966580174772309e+01 2.7988196963210337e+00 1 0 0
400 1 4 -2.6805900220174056e-01 1.6406336779038764e+01 1.3736168356051794e+01 2.9860803179537942e+00 0 0 0
433 1 4 -2.5462488434956010e-01 3.4945622148131807e+00 4.7345676390848990e+00 1.0358523878924167e+01 0 0 0
392 1 4 -2.7429332694521180e-01 7.0833221696196382e+00 9.4811576137776825e+00 6.3317279513023266e+00 0 0 0
107 1 2 2.4637369168659340e-01 4.5573445650485311e+00 1.0902123472605975e+01 7.6943905891382078e+00 0 0 0
155 1 2 2.5983218001176722e-01 4.3168821792433079e+00 9.0416710054866662e+00 8.8805373709789457e+00 0 0 0
216 1 3 4.4129066192502331e-01 7.0614119042762784e+00 9.4837700207668707e+00 5.0330053055156903e+00 0 0 0
299 1 3 -1.8476259599046602e-01 2.7254579418216895e+00 9.7359585196731278e+00 1.0225326161950335e+01 0 0 0
315 1 3 3.9769501821051162e-01 2.4673575356415398e+00 8.3345008875482662e+00 1.0768304421311520e+01 0 0 0
507 1 4 -2.5496087448568050e-01 1.4063318453052487e+00 7.7192598949001052e+00 1.0394370609493706e+01 0 0 0
11 1 1 1.0853384685859072e-01 4.1143307792690074e+00 1.1174734582144231e+01 8.6363859926669946e+00 0 0 0
15 1 1 8.0303490931160626e-02 5.2825758191167171e+00 -1.6551314782152198e+00 7.4572181332765490e+00 0 0 0
24 1 1 1.1218024548862257e-01 8.1275047964100384e+00 1.0057459395254954e+01 2.7926136827113011e+00 0 0 0
59 1 1 9.3906476753768536e-02 4.1088476821772026e+00 9.9216226415908171e+00 9.5862575648836525e+00 0 0 0
65 1 1 7.1028796367053948e-02 2.5084550688383853e+00 2.3871795003055793e+00 1.1884138015631279e+01 0 0 0
75 1 1 7.4080017640818119e-02 2.8263779372359004e+00 1.0681414252400488e+01 1.1386906829408034e+01 0 0 0
91 1 1 1.0301461782953709e-01 2.6481725055097014e+00 1.2664378166892485e+01 9.9624963004202591e+00 0 0 0
95 1 1 7.4347526417385706e-02 4.3372926927463560e+00 -2.3311997781616642e+00 9.4804846015085502e+00 0 0 0
111 1 2 2.4127887354225938e-01 5.9080719409788216e+00 -7.9575509197718386e-01 6.9736310066024858e+00 0 0 0
120 1 2 2.5087209668757932e-01 7.1188708491037360e+00 9.7033451371637085e+00 2.3531342326117248e+00 0 0 0
122 1 2 2.4289099758751553e-01 5.7202368277168603e+00 1.5774196473627365e+01 3.0577737703323589e+00 0 0 0
161 1 2 2.4177998911563964e-01 3.5657462007777641e+00 2.0999167669864045e+00 1.1918059213560102e+01 0 0 0
171 1 2 2.5561910512355129e-01 2.3740135421977824e+00 1.0158586362041746e+01 1.2247458094299777e+01 0 0 0
184 1 2 2.5407304904786870e-01 8.8780328333926501e+00 8.1827638950476800e+00 1.7906544090223622e+00 0 0 0
187 1 2 2.4638719951166727e-01 2.0244585550832817e+00 1.3586052661290761e+01 9.6988760296908119e+00 0 0 0
191 1 2 2.5395663744744473e-01 4.4212891044271423e+00 -2.1017588197529791e+00 1.0536802129588441e+01 0 0 0
200 1 3 -2.4740911420505776e-01 8.2011045806656053e+00 1.0095302979243630e+01 4.3025573001995125e+00 0 0 0
218 1 3 4.5956753708866577e-01 6.4321714962885004e+00 1.4718871036816983e+01 7.7030429448142379e-01 0 0 0
228 1 3 -2.2486344564940697e-01 7.5948058530372204e+00 -6.9284034933229044e-01 5.8871617310590918e-01 0 1 0
244 1 3 4.1686126240655219e-01 3.0189470987512674e+00 -3.4408319602166704e+00 1.3295538080081378e+01 0 1 -1
250 1 3 4.3758862113860575e-01 4.5172736872153108e+00 1.7880999924407114e+01 4.0110655020570851e+00 0 0 0
267 1 3 -1.9633696439309964e-01 5.1127055925946268e+00 1.0038213528741968e+01 1.0707351768605907e+01 0 0 0
276 1 3 4.8436314035628292e-01 7.3888405411615778e+00 -3.9705362452341886e-01 3.4451903212735457e+00 0 0 0
305 1 3 4.2021651822008410e-01 2.5032962444081681e+00 2.0610085029315339e-01 1.3105218857715968e+01 0 0 0
321 1 3 -1.9430941830939008e-01 2.4861768130861268e+00 3.8576857986033009e+00 1.2220874369629296e+01 0 0 0
331 1 3 -2.2600104311408883e-01 2.0018405845443752e+00 1.1966010714539658e+01 1.1113415564633691e+01 0 0 0
337 1 3 4.4926714995346745e-01 8.0149266378474611e+00 7.1420618398394016e+00 -5.0531593101027839e-01 0 0 1
367 1 3 -1.9126020002002569e-01 4.5643584487279707e+00 -1.1044162737845209e+00 8.6712745140681342e+00 0 0 0
376 1 3 4.4683808537788222e-01 9.2575223815088385e+00 7.1567344046634354e+00 4.1180920505093725e+00 0 0 0
383 1 3 3.8333158983738119e-01 5.4021516544570973e+00 -7.8359150686658552e-02 9.4565457443174061e+00 0 0 0
397 1 4 -2.8513821580280585e-01 3.6591993691120095e+00 1.6632408492984680e+01 7.8942608303568251e+00 0 0 0
413 1 4 -3.1461142567352463e-01 2.9463666507915205e+00 1.5882556858626126e+01 9.8543406472539274e+00 0 0 0
420 1 4 -3.3748176706643923e-01 4.2474831603751353e+00 -3.1004811318458225e+00 1.2978149723239685e+01 0 0 -1
442 1 4 -2.4118874663563611e-01 3.7258582592558924e+00 1.8837444993281864e+01 4.3815442896609520e+00 0 0 0
452 1 4 -2.6583661783488283e-01 7.2679735926464843e+00 8.8454852987247667e-01 3.2313706392733823e+00 0 0 0
468 1 4 -3.6820957030285029e-01 6.5859110308279032e+00 -1.0452111004557894e+00 4.2100647818753067e+00 0 0 0
497 1 4 -2.0472916328901969e-01 7.8611581195898239e+00 3.0008949414686343e+00 1.8332549977401780e-01 0 0 1
513 1 4 -3.5902284112442645e-01 7.8065221325847034e+00 8.3096751319233544e+00 -1.9008904781628644e-02 0 0 1
552 1 4 -3.9660258726720515e-01 8.4465004310189471e+00 7.1021080500598810e+00 5.1134825276971263e+00 0 0 0
559 1 4 -2.2690721945789244e-01 5.8499344989867996e+00 9.9725925892122058e-01 8.9366114112786654e+00 0 0 0
568 1 4 -2.4076582861344203e-01 9.8027454514175414e+00 6.0349237481555322e+00 3.7362680902696876e+00 0 0 0
575 1 4 -2.3919218954740373e-01 5.6971591754820956e+00 -3.2519474535501836e-01 1.0718020845192907e+01 0 0 0
395 1 4 -2.3067111175299210e-01 5.8850382400227952e+00 1.2811814531429116e+01 7.0418438294456971e+00 0 0 0
8 1 1 1.0687452796180684e-01 9.5805993565629617e+00 9.6172693166118979e+00 4.6753838051356649e+00 0 0 0
27 1 1 1.1403396053639268e-01 4.2037192844331122e+00 1.2953638556454147e+01 1.0328022512951279e+01 0 0 0
31 1 1 7.2052570532240082e-02 5.4108297731334964e+00 -3.4284775868484072e+00 9.0290921503000021e+00 0 0 0
36 1 1 7.9873065235804466e-02 8.8520139719111839e+00 -8.3851805822585568e-01 1.4123405829014999e+00 0 1 0
40 1 1 9.6319494459323696e-02 9.8440219259431405e+00 1.1830634450745416e+01 2.5971679995829158e+00 0 0 0
43 1 1 7.9921044680681549e-02 4.3111199480410374e+00 1.0949375045659270e+01 1.1677806283737709e+01 0 0 0
68 1 1 1.0390204284726123e-01 8.5596199561684063e+00 2.5864164587030082e+01 9.8599178743320937e-01 0 0 0
88 1 1 8.0996119913571779e-02 9.2104815269074685e+00 9.0000704145245809e+00 2.4068120613726860e+00 0 0 0
104 1 2 2.4759279221148950e-01 9.5458665820426916e+00 9.1966853306635556e+00 5.7153770154007582e+00 0 0 0
132 1 2 2.5426442956804290e-01 9.2928108399842628e+00 1.9638272130985346e-01 1.2014092709810298e+00 0 0 0
139 1 2 2.6330549341986337e-01 4.6407507592931516e+00 1.0414066858158041e+01 1.2597750617707643e+01 0 0 0
203 1 3 -2.6587344055742179e-01 4.9204784014644822e+00 1.2307723870168031e+01 9.1872150023829242e+00 0 0 0
207 1 3 -2.0455851043520251e-01 6.1626902671819757e+00 -2.7840936646569401e+00 7.9120059799214308e+00 0 0 0
221 1 3 4.3254084721565000e-01 3.8643255904900640e+00 1.6483077165688556e+01 9.1670366482210497e+00 0 0 0
232 1 3 -2.2292310601683968e-01 8.4115284543654631e+00 1.1423738474336734e+01 2.1967097448449717e+00 0 0 0
235 1 3 -2.0592032221547774e-01 4.6825574051880325e+00 1.2403186674958752e+01 1.1647277474542335e+01 0 0 0
248 1 3 4.4479063598459406e-01 8.2020605140661953e+00 1.1380394634884722e+01 7.0503777078112062e-01 0 0 0
251 1 3 4.1560766628891910e-01 4.0270396375359025e+00 1.3155790391175612e+01 1.2861442239626186e+01 0 0 0