ITEM: TIMESTEP
0
ITEM: NUMBER OF ATOMS
672
ITEM: BOX BOUNDS xy xz yz pp pp pp
0.0000000000000000e+00 2.9982000351000000e+01 0.0000000000000000e+00
0.0000000000000000e+00 1.2154000282300000e+01 0.0000000000000000e+00
0.0000000000000000e+00 2.0017000198400002e+01 0.0000000000000000e+00
ITEM: ATOMS id type xs ys zs
1 1 0.141706 0.0680446 0.154583
2 1 0.641705 0.0680503 0.15458
3 1 0.358294 0.931956 0.654583
4 1 0.858295 0.93195 0.654581
5 1 0.391705 0.931947 0.154579
6 1 0.891705 0.931953 0.154582
7 1 0.108294 0.0680475 0.654581
8 1 0.608294 0.0680414 0.654584
9 1 0.141706 0.568048 0.154581
10 1 0.641705 0.568054 0.154578
11 1 0.358293 0.431954 0.654582
12 1 0.858295 0.431949 0.65458
13 1 0.391706 0.431946 0.154578
14 1 0.891706 0.431952 0.154581
15 1 0.108294 0.568051 0.654579
16 1 0.608294 0.568045 0.654582
17 1 0.188183 0.0465735 0.151917
18 1 0.688184 0.0465737 0.151917
19 1 0.311817 0.953426 0.651917
20 1 0.811816 0.953426 0.651917
21 1 0.438185 0.953426 0.151916
22 1 0.938183 0.953427 0.151917
23 1 0.0618162 0.0465737 0.651917
24 1 0.561818 0.046573 0.651917
25 1 0.188185 0.546574 0.151917
26 1 0.688186 0.546574 0.151916
27 1 0.311816 0.453426 0.651917
28 1 0.811815 0.453426 0.651917
29 1 0.438187 0.453425 0.151916
30 1 0.938184 0.453426 0.151917
31 1 0.0618145 0.546574 0.651916
32 1 0.561816 0.546574 0.651917
33 1 0.214917 0.113918 0.110495
34 1 0.714915 0.113923 0.110494
35 1 0.285083 0.886082 0.610495
36 1 0.785085 0.886077 0.610494
37 1 0.464913 0.886075 0.110493
38 1 0.964917 0.88608 0.110494
39 1 0.0350841 0.113921 0.610494
40 1 0.535081 0.113916 0.610496
41 1 0.214915 0.613921 0.110495
42 1 0.714913 0.613925 0.110493
43 1 0.285084 0.386082 0.610496
44 1 0.785086 0.386077 0.610494
45 1 0.464912 0.386075 0.110494
46 1 0.964915 0.386079 0.110495
47 1 0.0350866 0.613923 0.610494
48 1 0.535084 0.613918 0.610495
49 1 0.194994 0.201544 0.073106
50 1 0.694992 0.201539 0.0731091
51 1 0.305006 0.798456 0.573106
52 1 0.805008 0.79846 0.573109
53 1 0.444991 0.798463 0.0731107
54 1 0.944993 0.798458 0.0731073
55 1 0.0550069 0.201542 0.573108
56 1 0.555005 0.201546 0.573104
57 1 0.194993 0.701541 0.0731081
58 1 0.694991 0.701537 0.0731111
59 1 0.305006 0.298457 0.573107
60 1 0.805008 0.298461 0.57311
61 1 0.444991 0.298464 0.0731113
62 1 0.944993 0.298459 0.0731079
63 1 0.0550081 0.701539 0.57311
64 1 0.555006 0.701543 0.573106
65 1 0.148407 0.223108 0.0793932
66 1 0.648408 0.2231 0.0793962
67 1 0.351594 0.776891 0.579393
68 1 0.851592 0.776899 0.579396
69 1 0.398408 0.776904 0.0793981
70 1 0.898407 0.776895 0.0793943
71 1 0.101593 0.223104 0.579395
72 1 0.601594 0.223114 0.579391
73 1 0.148407 0.723102 0.0793956
74 1 0.648409 0.723094 0.0793986
75 1 0.351593 0.276894 0.579394
76 1 0.851592 0.276901 0.579397
77 1 0.398409 0.276907 0.0793992
78 1 0.898407 0.276897 0.0793954
79 1 0.101592 0.723098 0.579397
80 1 0.601593 0.723107 0.579394
81 1 0.120648 0.155053 0.119164
82 1 0.620646 0.155056 0.119163
83 1 0.379352 0.844947 0.619164
84 1 0.879354 0.844945 0.619163
85 1 0.370645 0.844941 0.119162
86 1 0.870647 0.844946 0.119164
87 1 0.129353 0.155055 0.619164
88 1 0.629351 0.15505 0.619165
89 1 0.120646 0.655057 0.119163
90 1 0.620645 0.65506 0.119162
91 1 0.379353 0.344945 0.619163
92 1 0.879354 0.344942 0.619162
93 1 0.370644 0.344938 0.119161
94 1 0.870647 0.344944 0.119163
95 1 0.129355 0.655059 0.619162
96 1 0.629352 0.655054 0.619164
97 1 0.11496 0.997667 0.205262
98 1 0.61496 0.997666 0.205263
99 1 0.38504 0.00233301 0.705262
100 1 0.88504 0.00233346 0.705263
101 1 0.364959 0.00233515 0.205264
102 1 0.86496 0.00233292 0.205262
103 1 0.13504 0.997667 0.705263
104 1 0.63504 0.997668 0.705261
105 1 0.114959 0.497665 0.205264
106 1 0.614959 0.497664 0.205264
107 1 0.385041 0.502334 0.705263
108 1 0.885041 0.502335 0.705264
109 1 0.364958 0.502336 0.205265
110 1 0.864959 0.502334 0.205263
111 1 0.135041 0.497665 0.705264
112 1 0.63504 0.497667 0.705263
113 1 0.26366 0.185775 0.844971
114 1 0.763664 0.185777 0.844971
115 1 0.236343 0.814227 0.344972
116 1 0.736339 0.814225 0.344971
117 1 0.0136578 0.814227 0.844972
118 1 0.513661 0.814225 0.844971
119 1 0.48634 0.185775 0.344971
120 1 0.986336 0.185777 0.344971
121 1 0.263643 0.685763 0.844973
122 1 0.763646 0.685765 0.844973
123 1 0.236358 0.314237 0.344973
124 1 0.736354 0.314235 0.344973
125 1 0.0136426 0.314237 0.844973
126 1 0.513646 0.314235 0.844973
127 1 0.486357 0.685763 0.344973
128 1 0.986354 0.685766 0.344973
129 1 0.311746 0.204872 0.847008
130 1 0.811746 0.204872 0.847007
131 1 0.188254 0.795127 0.347008
132 1 0.688254 0.795128 0.347008
133 1 0.0617461 0.795127 0.847008
134 1 0.561746 0.795128 0.847008
135 1 0.438254 0.204872 0.347008
136 1 0.938254 0.204872 0.347007
137 1 0.311745 0.704874 0.847009
138 1 0.811746 0.704873 0.847008
139 1 0.188255 0.295126 0.347009
140 1 0.688254 0.295127 0.347008
141 1 0.0617454 0.295126 0.847009
142 1 0.561746 0.295127 0.847008
143 1 0.438255 0.704874 0.347009
144 1 0.938254 0.704873 0.347008
145 1 0.337645 0.132417 0.889593
146 1 0.837644 0.13243 0.889586
147 1 0.162355 0.867596 0.389599
148 1 0.662356 0.867581 0.389591
149 1 0.0876446 0.867595 0.889598
150 1 0.587644 0.867582 0.889592
151 1 0.412355 0.132416 0.389593
152 1 0.912356 0.132431 0.389586
153 1 0.337646 0.632346 0.889627
154 1 0.837645 0.632358 0.889621
155 1 0.162355 0.367655 0.389627
156 1 0.662355 0.367641 0.38962
157 1 0.0876455 0.367654 0.889627
158 1 0.587645 0.367641 0.889621
159 1 0.412355 0.632346 0.389627
160 1 0.912355 0.632359 0.38962
161 1 0.316914 0.0438297 0.924349
162 1 0.816914 0.04383 0.924349
163 1 0.183087 0.956171 0.424349
164 1 0.683086 0.95617 0.424349
165 1 0.0669134 0.956171 0.924349
166 1 0.566914 0.95617 0.924349
167 1 0.433086 0.0438297 0.424349
168 1 0.933086 0.04383 0.424349
169 1 0.316913 0.543823 0.924351
170 1 0.816913 0.543825 0.92435
171 1 0.183087 0.456177 0.424351
172 1 0.683087 0.456175 0.42435
173 1 0.066913 0.456177 0.924351
174 1 0.566913 0.456175 0.92435
175 1 0.433087 0.543823 0.424351
176 1 0.933087 0.543825 0.42435
177 1 0.269976 0.0218599 0.918612
178 1 0.769972 0.0218579 0.918612
179 1 0.230019 0.978138 0.418612
180 1 0.730024 0.97814 0.418612
181 1 0.0199804 0.978138 0.918612
182 1 0.519976 0.97814 0.918612
183 1 0.480023 0.02186 0.418612
184 1 0.980028 0.0218576 0.418612
185 1 0.269999 0.521874 0.918613
186 1 0.769995 0.521872 0.918613
187 1 0.23 0.478125 0.418613
188 1 0.730005 0.478128 0.418613
189 1 0.0199993 0.478125 0.918613
190 1 0.519995 0.478128 0.918613
191 1 0.480001 0.521875 0.418613
192 1 0.980005 0.521872 0.418613
193 1 0.243908 0.0965421 0.880345
194 1 0.743907 0.0965423 0.880345
195 1 0.256091 0.903459 0.380346
196 1 0.756092 0.903459 0.380346
197 1 0.493908 0.903459 0.880346
198 1 0.993909 0.903459 0.880346
199 1 0.00609269 0.0965425 0.380345
200 1 0.506091 0.0965419 0.380345
201 1 0.243914 0.596538 0.880349
202 1 0.743913 0.596538 0.880348
203 1 0.256085 0.403462 0.380349
204 1 0.756087 0.403462 0.380348
205 1 0.493913 0.403462 0.880348
206 1 0.993915 0.403462 0.880349
207 1 0.00608673 0.596538 0.380348
208 1 0.506085 0.596538 0.380349
209 1 0.231115 0.251515 0.799341
210 1 0.731115 0.251515 0.799342
211 1 0.268886 0.748483 0.29934
212 1 0.768886 0.748484 0.299341
213 1 0.481114 0.748484 0.799341
214 1 0.981114 0.748484 0.79934
215 1 0.018885 0.251514 0.299342
216 1 0.518885 0.251515 0.299341
217 1 0.231112 0.75152 0.799338
218 1 0.731113 0.75152 0.799338
219 1 0.268888 0.24848 0.299337
220 1 0.768887 0.24848 0.299338
221 1 0.481113 0.24848 0.799338
222 1 0.981112 0.24848 0.799337
223 1 0.0188873 0.751519 0.299338
224 1 0.518888 0.75152 0.299337
225 2 0.211239 0.955954 0.193484
226 2 0.711239 0.955955 0.193484
227 2 0.288761 0.0440458 0.693484
228 2 0.788761 0.0440455 0.693484
229 2 0.461239 0.0440427 0.193484
230 2 0.961239 0.0440462 0.193484
231 2 0.0387608 0.955955 0.693484
232 2 0.53876 0.955952 0.693485
233 2 0.211239 0.455957 0.193484
234 2 0.711239 0.455958 0.193483
235 2 0.288761 0.544043 0.693484
236 2 0.788761 0.544043 0.693484
237 2 0.461239 0.54404 0.193483
238 2 0.961239 0.544044 0.193484
239 2 0.0387611 0.455958 0.693483
240 2 0.538761 0.455955 0.693484
241 2 0.223076 0.272267 0.0265945
242 2 0.723074 0.272264 0.026597
243 2 0.276924 0.727732 0.526594
244 2 0.776926 0.727736 0.526597
245 2 0.473073 0.727738 0.0265982
246 2 0.973075 0.727734 0.0265955
247 2 0.026925 0.272265 0.526596
248 2 0.526923 0.27227 0.526593
249 2 0.223075 0.772265 0.0265962
250 2 0.723073 0.772261 0.0265985
251 2 0.276924 0.227733 0.526595
252 2 0.776926 0.227737 0.526597
253 2 0.473073 0.227739 0.0265988
254 2 0.973075 0.227735 0.0265961
255 2 0.0269263 0.772263 0.526597
256 2 0.526924 0.772267 0.526595
257 2 0.0697981 0.175562 0.121927
258 2 0.5698 0.175561 0.121927
259 2 0.430202 0.824438 0.621927
260 2 0.9302 0.824439 0.621927
261 2 0.319801 0.82444 0.121927
262 2 0.819799 0.824438 0.121927
263 2 0.180201 0.175561 0.621927
264 2 0.680203 0.175563 0.621927
265 2 0.0697998 0.675561 0.121927
266 2 0.569802 0.67556 0.121927
267 2 0.430201 0.324438 0.621927
268 2 0.930199 0.324439 0.621927
269 2 0.319802 0.32444 0.121927
270 2 0.8198 0.324439 0.121927
271 2 0.180199 0.675561 0.621927
272 2 0.680201 0.675562 0.621927
273 2 0.334665 0.291646 0.807277
274 2 0.834664 0.291636 0.807279
275 2 0.165334 0.708343 0.307274
276 2 0.665335 0.708355 0.307277
277 2 0.0846658 0.708344 0.807274
278 2 0.584665 0.708355 0.807277
279 2 0.415335 0.291647 0.307276
280 2 0.915336 0.291634 0.30728
281 2 0.33467 0.791697 0.807262
282 2 0.834669 0.791688 0.807264
283 2 0.16533 0.208302 0.307261
284 2 0.665331 0.208312 0.307264
285 2 0.0846698 0.208302 0.807262
286 2 0.584669 0.208312 0.807264
287 2 0.41533 0.791698 0.307262
288 2 0.915331 0.791687 0.307265
289 2 0.345556 0.96857 0.968584
290 2 0.845557 0.968568 0.968585
291 2 0.154445 0.0314274 0.468582
292 2 0.654444 0.0314303 0.468584
293 2 0.0955548 0.0314276 0.968582
294 2 0.595556 0.0314302 0.968584
295 2 0.404444 0.96857 0.468584
296 2 0.904443 0.968567 0.468586
297 2 0.34555 0.468583 0.968575
298 2 0.845551 0.468581 0.968576
299 2 0.15445 0.531417 0.468575
300 2 0.654449 0.531419 0.468576
301 2 0.0955501 0.531417 0.968575
302 2 0.595551 0.531419 0.968576
303 2 0.40445 0.468583 0.468575
304 2 0.904449 0.468581 0.468576
305 2 0.192765 0.0776133 0.880229
306 2 0.692764 0.0776132 0.880229
307 2 0.307235 0.922386 0.380229
308 2 0.807235 0.922387 0.380229
309 2 0.442765 0.922387 0.880229
310 2 0.942765 0.922386 0.880229
311 2 0.0572359 0.0776132 0.380229
312 2 0.557235 0.0776134 0.380229
313 2 0.192768 0.577615 0.880229
314 2 0.692767 0.577615 0.880229
315 2 0.307232 0.422385 0.380229
316 2 0.807233 0.422385 0.380229
317 2 0.442767 0.422385 0.880229
318 2 0.942768 0.422385 0.880229
319 2 0.0572329 0.577615 0.380229
320 2 0.557232 0.577615 0.380229
321 3 0.192908 0.862245 0.194517
322 3 0.692908 0.862244 0.194517
323 3 0.307092 0.137755 0.694517
324 3 0.807092 0.137756 0.694517
325 3 0.442908 0.137758 0.194517
326 3 0.942908 0.137755 0.194517
327 3 0.057092 0.862244 0.694517
328 3 0.557092 0.862246 0.694517
329 3 0.192908 0.362243 0.194517
330 3 0.692908 0.362242 0.194517
331 3 0.307092 0.637757 0.694517
332 3 0.807092 0.637757 0.694517
333 3 0.442908 0.637759 0.194517
334 3 0.942908 0.637757 0.194517
335 3 0.0570922 0.362242 0.694517
336 3 0.557092 0.362244 0.694517
337 3 0.248276 0.986282 0.221336
338 3 0.748276 0.986282 0.221336
339 3 0.251724 0.0137176 0.721336
340 3 0.751724 0.0137176 0.721336
341 3 0.498277 0.0137178 0.221336
342 3 0.998276 0.0137176 0.221336
343 3 0.00172356 0.986282 0.721336
344 3 0.501724 0.986283 0.721336
345 3 0.248276 0.486282 0.221336
346 3 0.748277 0.486282 0.221336
347 3 0.251724 0.513718 0.721336
348 3 0.751724 0.513718 0.721336
349 3 0.498277 0.513718 0.221336
350 3 0.998276 0.513718 0.221336
351 3 0.00172348 0.486282 0.721336
352 3 0.501724 0.486282 0.721336
353 3 0.260138 0.22969 0.00622225
354 3 0.760142 0.229685 0.00622018
355 3 0.239863 0.770309 0.506222
356 3 0.739858 0.770315 0.50622
357 3 0.0101395 0.770312 0.00622139
358 3 0.510144 0.770318 0.00621922
359 3 0.489864 0.229693 0.506223
360 3 0.98986 0.229688 0.506221
361 3 0.26014 0.729687 0.006221
362 3 0.760144 0.729682 0.00621899
363 3 0.239862 0.27031 0.506222
364 3 0.739858 0.270315 0.50622
365 3 0.0101401 0.270313 0.00622105
366 3 0.510144 0.270318 0.00621889
367 3 0.489862 0.72969 0.506222
368 3 0.989858 0.729684 0.50622
369 3 0.207312 0.368453 0.012685
370 3 0.70731 0.368463 0.0126839
371 3 0.292688 0.631548 0.512685
372 3 0.79269 0.631538 0.512684
373 3 0.457309 0.631532 0.0126834
374 3 0.957311 0.631543 0.0126846
375 3 0.0426888 0.368458 0.512684
376 3 0.542687 0.368448 0.512686
377 3 0.207311 0.868459 0.0126843
378 3 0.707309 0.868469 0.0126833
379 3 0.292688 0.131546 0.512685
380 3 0.79269 0.131536 0.512684
381 3 0.457309 0.13153 0.0126832
382 3 0.957311 0.131541 0.0126844
383 3 0.0426898 0.868464 0.512684
384 3 0.542688 0.868454 0.512685
385 3 0.0579072 0.275166 0.13458
386 3 0.557908 0.275158 0.134579
387 3 0.442093 0.724834 0.63458
388 3 0.942092 0.724841 0.634579
389 3 0.307909 0.724845 0.134579
390 3 0.807908 0.724837 0.13458
391 3 0.192092 0.275162 0.63458
392 3 0.692093 0.27517 0.63458
393 3 0.057908 0.775161 0.134579
394 3 0.557909 0.775154 0.134578
395 3 0.442093 0.224836 0.63458
396 3 0.942091 0.224843 0.634579
397 3 0.307909 0.224847 0.134578
398 3 0.807908 0.224839 0.134579
399 3 0.192091 0.775157 0.634579
400 3 0.692093 0.775165 0.63458
401 3 0.0446342 0.0916199 0.111293
402 3 0.544636 0.0916259 0.111294
403 3 0.455366 0.90838 0.611293
404 3 0.955364 0.908375 0.611294
405 3 0.294637 0.908371 0.111294
406 3 0.794635 0.908378 0.111294
407 3 0.205365 0.0916229 0.611294
408 3 0.705367 0.0916167 0.611293
409 3 0.0446355 0.591624 0.111294
410 3 0.544637 0.59163 0.111294
411 3 0.455365 0.408379 0.611293
412 3 0.955364 0.408373 0.611294
413 3 0.294638 0.40837 0.111295
414 3 0.794635 0.408376 0.111294
415 3 0.205364 0.591627 0.611294
416 3 0.705366 0.591621 0.611293
417 3 0.316729 0.381425 0.804312
418 3 0.816728 0.38143 0.804312
419 3 0.18327 0.61858 0.304312
420 3 0.683271 0.618574 0.304312
421 3 0.0667298 0.61858 0.804312
422 3 0.566729 0.618575 0.804312
423 3 0.433271 0.381425 0.304312
424 3 0.933272 0.381431 0.304312
425 3 0.316734 0.881403 0.804312
426 3 0.816733 0.881407 0.804312
427 3 0.183266 0.118598 0.304312
428 3 0.683267 0.118593 0.304312
429 3 0.0667337 0.118598 0.804312
430 3 0.566733 0.118593 0.804312
431 3 0.433266 0.881402 0.304312
432 3 0.933267 0.881407 0.304312
433 3 0.371586 0.260912 0.782209
434 3 0.871586 0.260911 0.78221
435 3 0.128414 0.739087 0.282209
436 3 0.628414 0.739088 0.28221
437 3 0.121586 0.739087 0.782209
438 3 0.621586 0.739088 0.78221
439 3 0.378414 0.260912 0.282209
440 3 0.878414 0.260911 0.282209
441 3 0.371587 0.760916 0.782208
442 3 0.871587 0.760915 0.782208
443 3 0.128413 0.239084 0.282208
444 3 0.628413 0.239085 0.282208
445 3 0.121587 0.239084 0.782208
446 3 0.621587 0.239085 0.782208
447 3 0.378413 0.760916 0.282208
448 3 0.878413 0.760915 0.282208
449 3 0.3792 0.0148458 0.99727
450 3 0.879202 0.0148453 0.997271
451 3 0.120801 0.985154 0.497268
452 3 0.6208 0.985154 0.49727
453 3 0.129199 0.985154 0.997268
454 3 0.6292 0.985154 0.99727
455 3 0.3708 0.0148458 0.49727
456 3 0.870798 0.0148453 0.497271
457 3 0.37919 0.514844 0.997259
458 3 0.879192 0.514845 0.997261
459 3 0.12081 0.485156 0.497258
460 3 0.620808 0.485155 0.497261
461 3 0.12919 0.485156 0.997259
462 3 0.629192 0.485155 0.997261
463 3 0.37081 0.514844 0.497259
464 3 0.870808 0.514845 0.497261
465 3 0.332268 0.867941 0.97319
466 3 0.832269 0.867937 0.973191
467 3 0.167732 0.132054 0.473189
468 3 0.667731 0.132059 0.47319
469 3 0.0822683 0.132054 0.973189
470 3 0.582269 0.132059 0.97319
471 3 0.417732 0.867941 0.47319
472 3 0.917731 0.867937 0.473191
473 3 0.332268 0.367974 0.973184
474 3 0.832268 0.367967 0.973185
475 3 0.167732 0.632025 0.473184
476 3 0.667732 0.632033 0.473185
477 3 0.0822681 0.632026 0.973184
478 3 0.582268 0.632033 0.973185
479 3 0.417732 0.367974 0.473184
480 3 0.917732 0.367966 0.473185
481 3 0.180707 0.982256 0.859374
482 3 0.680708 0.98226 0.859375
483 3 0.319293 0.0177468 0.359373
484 3 0.819293 0.017743 0.359374
485 3 0.430707 0.0177432 0.859374
486 3 0.930707 0.0177465 0.859373
487 3 0.0692923 0.98226 0.359375
488 3 0.569293 0.982256 0.359374
489 3 0.180706 0.482239 0.85937
490 3 0.680706 0.482242 0.859371
491 3 0.319294 0.517761 0.35937
492 3 0.819294 0.517758 0.359371
493 3 0.430706 0.517758 0.859371
494 3 0.930706 0.517761 0.85937
495 3 0.069294 0.482242 0.359371
496 3 0.569294 0.482239 0.35937
497 3 0.16936 0.158388 0.901322
498 3 0.669361 0.158385 0.901321
499 3 0.330641 0.841609 0.401323
500 3 0.83064 0.841612 0.401322
501 3 0.41936 0.841612 0.901322
502 3 0.919359 0.841609 0.901323
503 3 0.0806393 0.158385 0.401321
504 3 0.58064 0.158388 0.401322
505 3 0.169356 0.658403 0.901326
506 3 0.669357 0.6584 0.901325
507 3 0.330644 0.341597 0.401326
508 3 0.830643 0.3416 0.401325
509 3 0.419357 0.3416 0.901325
510 3 0.919356 0.341597 0.901326
511 3 0.0806431 0.6584 0.401325
512 3 0.580644 0.658403 0.401326
513 4 0.136285 0.971993 0.247012
514 4 0.636285 0.971993 0.247012
515 4 0.363715 0.0280074 0.747012
516 4 0.863715 0.0280074 0.747012
517 4 0.386285 0.0280073 0.247012
518 4 0.886285 0.0280074 0.247012
519 4 0.113715 0.971993 0.747012
520 4 0.613715 0.971993 0.747012
521 4 0.136285 0.471993 0.247012
522 4 0.636285 0.471993 0.247012
523 4 0.363715 0.528007 0.747012
524 4 0.863715 0.528007 0.747012
525 4 0.386285 0.528007 0.247012
526 4 0.886285 0.528007 0.247012
527 4 0.113715 0.471993 0.747012
528 4 0.613715 0.471993 0.747012
529 4 0.104804 0.919889 0.180008
530 4 0.604804 0.919889 0.180008
531 4 0.395196 0.0801109 0.680008
532 4 0.895196 0.0801109 0.680008
533 4 0.354804 0.0801108 0.180008
534 4 0.854804 0.0801109 0.180008
535 4 0.145196 0.919889 0.680008
536 4 0.645196 0.919889 0.680008
537 4 0.104804 0.419889 0.180008
538 4 0.604804 0.419889 0.180008
539 4 0.395196 0.580111 0.680008
540 4 0.895196 0.580111 0.680008
541 4 0.354805 0.580111 0.180008
542 4 0.854804 0.580111 0.180008
543 4 0.145196 0.419889 0.680008
544 4 0.645196 0.419889 0.680008
545 4 0.089812 0.0498336 0.230794
546 4 0.589812 0.0498336 0.230794
547 4 0.410188 0.950166 0.730794
548 4 0.910188 0.950166 0.730794
549 4 0.339812 0.950166 0.230794
550 4 0.839812 0.950166 0.230794
551 4 0.160188 0.0498336 0.730794
552 4 0.660188 0.0498337 0.730794
553 4 0.0898119 0.549834 0.230794
554 4 0.589812 0.549833 0.230794
555 4 0.410188 0.450166 0.730794
556 4 0.910188 0.450166 0.730794
557 4 0.339812 0.450167 0.230794
558 4 0.839812 0.450166 0.230794
559 4 0.160188 0.549833 0.730794
560 4 0.660188 0.549834 0.730794
561 4 0.251048 0.099165 0.108591
562 4 0.751048 0.0991651 0.108591
563 4 0.248952 0.900835 0.608591
564 4 0.748952 0.900835 0.608591
565 4 0.501048 0.900835 0.108591
566 4 0.00104773 0.900835 0.108591
567 4 0.998952 0.0991651 0.608591
568 4 0.498952 0.0991648 0.608591
569 4 0.251048 0.599165 0.108591
570 4 0.751048 0.599165 0.108591
571 4 0.248952 0.400835 0.608591
572 4 0.748952 0.400835 0.608591
573 4 0.501048 0.400835 0.108591
574 4 0.00104791 0.400835 0.108591
575 4 0.998952 0.599165 0.608591
576 4 0.498952 0.599165 0.608591
577 4 0.133392 0.288914 0.049346
578 4 0.633392 0.288914 0.0493458
579 4 0.366608 0.711086 0.549346
580 4 0.866608 0.711086 0.549346
581 4 0.383392 0.711086 0.0493457
582 4 0.883392 0.711086 0.0493459
583 4 0.116608 0.288914 0.549346
584 4 0.616608 0.288914 0.549346
585 4 0.133392 0.788914 0.0493458
586 4 0.633392 0.788914 0.0493457
587 4 0.366608 0.211086 0.549346
588 4 0.866608 0.211086 0.549346
589 4 0.383392 0.211085 0.0493457
590 4 0.883392 0.211086 0.0493459
591 4 0.116608 0.788914 0.549346
592 4 0.616608 0.788914 0.549346
593 4 0.248024 0.280852 0.753727
594 4 0.748024 0.280852 0.753727
595 4 0.251976 0.719148 0.253727
596 4 0.751976 0.719148 0.253727
597 4 0.498024 0.719148 0.753727
598 4 0.998024 0.719148 0.753727
599 4 0.00197577 0.280852 0.253727
600 4 0.501976 0.280852 0.253727
601 4 0.248024 0.780851 0.753727
602 4 0.748024 0.780851 0.753727
603 4 0.251976 0.219149 0.253727
604 4 0.751976 0.219149 0.253727
605 4 0.498024 0.219149 0.753727
606 4 0.998024 0.219149 0.753727
607 4 0.00197569 0.780851 0.253727
608 4 0.501976 0.780851 0.253727
609 4 0.203322 0.200243 0.781659
610 4 0.703322 0.200243 0.781659
611 4 0.296678 0.799757 0.281659
612 4 0.796678 0.799757 0.281659
613 4 0.453322 0.799757 0.781659
614 4 0.953322 0.799757 0.781659
615 4 0.0466781 0.200243 0.281659
616 4 0.546678 0.200243 0.281659
617 4 0.203322 0.700243 0.78166
618 4 0.703322 0.700243 0.78166
619 4 0.296678 0.299757 0.28166
620 4 0.796678 0.299757 0.28166
621 4 0.453322 0.299757 0.78166
622 4 0.953322 0.299757 0.78166
623 4 0.0466777 0.700243 0.28166
624 4 0.546678 0.700243 0.28166
625 4 0.214565 0.319298 0.826651
626 4 0.714565 0.319298 0.826651
627 4 0.285435 0.680702 0.326651
628 4 0.785435 0.680702 0.326651
629 4 0.464565 0.680702 0.826651
630 4 0.964565 0.680702 0.826651
631 4 0.0354352 0.319298 0.326651
632 4 0.535435 0.319298 0.326651
633 4 0.214565 0.819297 0.826651
634 4 0.714565 0.819297 0.826651
635 4 0.285435 0.180703 0.326651
636 4 0.785435 0.180703 0.326651
637 4 0.464565 0.180703 0.826651
638 4 0.964565 0.180703 0.826651
639 4 0.0354349 0.819297 0.326651
640 4 0.535435 0.819297 0.326651
641 4 0.373644 0.146082 0.893787
642 4 0.873644 0.146082 0.893787
643 4 0.126357 0.853918 0.393787
644 4 0.626356 0.853918 0.393787
645 4 0.123644 0.853918 0.893787
646 4 0.623644 0.853918 0.893787
647 4 0.376356 0.146082 0.393787
648 4 0.876356 0.146082 0.393787
649 4 0.373643 0.646081 0.893787
650 4 0.873643 0.646081 0.893787
651 4 0.126357 0.353919 0.393787
652 4 0.626357 0.353919 0.393787
653 4 0.123643 0.353919 0.893787
654 4 0.623643 0.353919 0.893787
655 4 0.376357 0.646081 0.393787
656 4 0.876357 0.646081 0.393787
657 4 0.253308 0.953686 0.944611
658 4 0.753308 0.953686 0.944611
659 4 0.246692 0.0463144 0.444611
660 4 0.746692 0.0463143 0.444611
661 4 0.00330841 0.0463144 0.944611
662 4 0.503308 0.0463143 0.944611
663 4 0.496692 0.953686 0.444611
664 4 0.996692 0.953686 0.444611
665 4 0.253309 0.453685 0.944611
666 4 0.753309 0.453685 0.944611
667 4 0.246691 0.546315 0.444611
668 4 0.746691 0.546315 0.444611
669 4 0.00330889 0.546315 0.944611
670 4 0.503309 0.546315 0.944611
671 4 0.496691 0.453685 0.444611
672 4 0.996691 0.453685 0.444611
ITEM: TIMESTEP
1000
ITEM: NUMBER OF ATOMS
672
ITEM: BOX BOUNDS xy xz yz pp pp pp
-7.3557431020241659e-01 3.0589075369302311e+01 -1.0595762067760590e-01
2.9989090271242524e-02 1.2250603302963526e+01 -2.2541671222494543e-02
-1.0368500498405098e-02 2.0027368698898410e+01 1.2659211093478059e-01
ITEM: ATOMS id type xs ys zs
1 1 0.144165 0.0520368 0.160251
2 1 0.650126 0.0729105 0.147757
3 1 0.360299 0.922831 0.658483
4 1 0.858277 0.929641 0.658468
5 1 0.395484 0.961597 0.165536
6 1 0.892418 0.924015 0.153031
7 1 0.103836 0.069716 0.660689
8 1 0.598827 0.0563075 0.663347
9 1 0.137729 0.562915 0.152814
10 1 0.644649 0.556672 0.160095
11 1 0.346246 0.462754 0.641371
12 1 0.866315 0.422214 0.66414
13 1 0.405394 0.429451 0.165459
14 1 0.892247 0.409553 0.148616
15 1 0.100805 0.581966 0.671322
16 1 0.616801 0.556564 0.657271
17 1 0.188517 0.0327346 0.162634
18 1 0.693488 0.0402801 0.145487
19 1 0.316281 0.951338 0.657407
20 1 0.817356 0.981852 0.660434
21 1 0.440545 0.9805 0.159337
22 1 0.936681 0.956058 0.151768
23 1 0.0605997 0.0352212 0.658345
24 1 0.554125 0.0303472 0.652267
25 1 0.183178 0.549504 0.147013
26 1 0.688177 0.533273 0.149997
27 1 0.301157 0.489151 0.632101
28 1 0.822873 0.449846 0.652214
29 1 0.45004 0.446985 0.161763
30 1 0.936994 0.436937 0.156053
31 1 0.056186 0.56351 0.667612
32 1 0.573525 0.523077 0.650484
33 1 0.212981 0.111628 0.12523
34 1 0.71943 0.101734 0.098184
35 1 0.291011 0.879379 0.615831
36 1 0.786675 0.934411 0.616356
37 1 0.459868 0.909589 0.112645
38 1 0.962439 0.892216 0.106974
39 1 0.0351101 0.0959498 0.61211
40 1 0.532727 0.0949246 0.604386
41 1 0.203598 0.611531 0.0980687
42 1 0.71159 0.600593 0.104376
43 1 0.279978 0.425494 0.582755
44 1 0.801176 0.392622 0.599169
45 1 0.470892 0.382173 0.110764
46 1 0.964546 0.368471 0.11712
47 1 0.0310302 0.636564 0.625828
48 1 0.545357 0.584994 0.609204
49 1 0.195319 0.201954 0.0865197
50 1 0.702251 0.191524 0.0595352
51 1 0.30917 0.791446 0.578244
52 1 0.793705 0.849577 0.568883
53 1 0.437662 0.8265 0.0752786
54 1 0.945283 0.800791 0.0708109
55 1 0.0485396 0.181807 0.567293
56 1 0.553483 0.189373 0.571146
57 1 0.182607 0.694211 0.0572979
58 1 0.694288 0.693592 0.0687855
59 1 0.300186 0.33737 0.548011
60 1 0.816959 0.294964 0.571305
61 1 0.450981 0.295604 0.077128
62 1 0.951572 0.280519 0.0744647
63 1 0.0509886 0.719945 0.584209
64 1 0.55966 0.680782 0.571108
65 1 0.150311 0.221882 0.0923499
66 1 0.658983 0.227541 0.0678898
67 1 0.352156 0.75861 0.58811
68 1 0.835128 0.801293 0.571814
69 1 0.392431 0.815103 0.0817874
70 1 0.903333 0.763568 0.081855
71 1 0.0923885 0.214225 0.575346
72 1 0.596696 0.209312 0.584149
73 1 0.137731 0.712585 0.0697315
74 1 0.64901 0.708677 0.0794244
75 1 0.345161 0.318142 0.556407
76 1 0.860234 0.269444 0.585492
77 1 0.407297 0.264511 0.0947887
78 1 0.906564 0.248637 0.0762552
79 1 0.0956536 0.739712 0.589253
80 1 0.603779 0.713139 0.580216
81 1 0.124063 0.141536 0.127152
82 1 0.63266 0.164843 0.112924
83 1 0.378788 0.829661 0.6265
84 1 0.866965 0.83276 0.618249
85 1 0.370791 0.885888 0.126057
86 1 0.874996 0.831162 0.118151
87 1 0.122003 0.154506 0.61623
88 1 0.621104 0.143086 0.628641
89 1 0.114742 0.643576 0.115828
90 1 0.623729 0.642704 0.123785
91 1 0.368617 0.381319 0.601943
92 1 0.885129 0.335847 0.62998
93 1 0.383833 0.337859 0.133334
94 1 0.877223 0.313352 0.112908
95 1 0.120749 0.66713 0.631169
96 1 0.631874 0.655619 0.62499
97 1 0.113967 0.969948 0.202943
98 1 0.615208 0.0105961 0.190244
99 1 0.392153 0.99088 0.701435
100 1 0.894664 0.969972 0.704468
101 1 0.370791 0.025378 0.22058
102 1 0.860893 0.992919 0.197843
103 1 0.135156 0.00270045 0.705336
104 1 0.631975 0.990159 0.706164
105 1 0.111488 0.500279 0.208285
106 1 0.618219 0.484688 0.211428
107 1 0.373067 0.513474 0.700212
108 1 0.89403 0.491761 0.715019
109 1 0.378396 0.504783 0.212078
110 1 0.860768 0.477481 0.190861
111 1 0.128023 0.509942 0.722991
112 1 0.64986 0.496749 0.704026
113 1 0.287087 0.195773 0.83985
114 1 0.778064 0.180652 0.84442
115 1 0.226273 0.814812 0.344659
116 1 0.727391 0.819746 0.337984
117 1 0.0258859 0.837007 0.846891
118 1 0.517502 0.795817 0.849672
119 1 0.478321 0.180367 0.35248
120 1 0.970492 0.159703 0.333831
121 1 0.273264 0.681748 0.847674
122 1 0.774474 0.684321 0.835854
123 1 0.223108 0.337041 0.351474
124 1 0.728558 0.313544 0.339598
125 1 0.0213977 0.324069 0.844651
126 1 0.524923 0.316517 0.838266
127 1 0.483151 0.685473 0.350584
128 1 0.968078 0.689366 0.336211
129 1 0.333202 0.205241 0.849264
130 1 0.82222 0.199186 0.85558
131 1 0.181252 0.792241 0.351571
132 1 0.681056 0.802277 0.33269
133 1 0.0719967 0.817925 0.851578
134 1 0.563193 0.778465 0.854777
135 1 0.433336 0.205485 0.365842
136 1 0.925272 0.174939 0.342002
137 1 0.319386 0.703543 0.851589
138 1 0.818243 0.701887 0.843021
139 1 0.17799 0.316493 0.357477
140 1 0.684044 0.298081 0.34883
141 1 0.0675193 0.305406 0.845373
142 1 0.569764 0.295304 0.846673
143 1 0.439265 0.712149 0.354335
144 1 0.922151 0.705654 0.337765
145 1 0.352961 0.120023 0.891094
146 1 0.844153 0.124558 0.897959
147 1 0.156562 0.865628 0.389896
148 1 0.656295 0.874738 0.371557
149 1 0.0975598 0.889977 0.889894
150 1 0.587799 0.853439 0.895802
151 1 0.409827 0.131145 0.408365
152 1 0.903897 0.110478 0.392986
153 1 0.342848 0.623608 0.889553
154 1 0.841031 0.632203 0.890112
155 1 0.154766 0.375769 0.408662
156 1 0.661885 0.364254 0.396938
157 1 0.0936577 0.377293 0.886108
158 1 0.59239 0.368359 0.888708
159 1 0.412892 0.648494 0.39797
160 1 0.896163 0.639861 0.384363
161 1 0.327477 0.0444356 0.927484
162 1 0.8273 0.0222718 0.921378
163 1 0.173662 0.963886 0.418196
164 1 0.675861 0.960926 0.40926
165 1 0.0796237 0.981789 0.9213
166 1 0.567361 0.951204 0.921159
167 1 0.42573 0.0296885 0.431671
168 1 0.926028 0.0238733 0.424157
169 1 0.324289 0.530645 0.922522
170 1 0.821595 0.549024 0.929859
171 1 0.174329 0.470206 0.437975
172 1 0.683074 0.45325 0.432762
173 1 0.0732323 0.462439 0.921813
174 1 0.572424 0.458565 0.922488
175 1 0.430734 0.545045 0.425199
176 1 0.916325 0.559026 0.42393
177 1 0.281645 0.0372417 0.915437
178 1 0.782954 0.996912 0.903151
179 1 0.219417 0.977456 0.416208
180 1 0.722123 0.983724 0.402574
181 1 0.0334711 0.000391526 0.912457
182 1 0.525268 0.979608 0.903731
183 1 0.468837 0.00292551 0.416592
184 1 0.969581 0.00279465 0.406366
185 1 0.28 0.510257 0.916247
186 1 0.777711 0.526696 0.917328
187 1 0.218449 0.49874 0.423931
188 1 0.728198 0.472502 0.417419
189 1 0.028918 0.48513 0.917884
190 1 0.527634 0.472922 0.914978
191 1 0.474269 0.516016 0.414381
192 1 0.962118 0.539283 0.418287
193 1 0.261117 0.115763 0.876043
194 1 0.758259 0.0845012 0.871873
195 1 0.246566 0.903395 0.381811
196 1 0.74819 0.910031 0.366835
197 1 0.499588 0.897441 0.872357
198 1 0.0079854 0.930709 0.873411
199 1 0.993949 0.075688 0.367148
200 1 0.494811 0.0770458 0.377351
201 1 0.253869 0.586472 0.878022
202 1 0.753216 0.593691 0.872663
203 1 0.243363 0.429266 0.382983
204 1 0.750969 0.399061 0.375343
205 1 0.503236 0.399832 0.874442
206 1 0.00126452 0.411459 0.880227
207 1 0.98878 0.605859 0.375784
208 1 0.505602 0.591156 0.381734
209 1 0.26727 0.275699 0.788602
210 1 0.749189 0.251397 0.797049
211 1 0.250259 0.73053 0.29972
212 1 0.748715 0.734688 0.289839
213 1 0.487107 0.721493 0.808089
214 1 0.997894 0.742717 0.815649
215 1 0.997157 0.251169 0.292923
216 1 0.504456 0.266947 0.31268
217 1 0.248997 0.760421 0.804927
218 1 0.749217 0.747687 0.784131
219 1 0.249592 0.266947 0.301227
220 1 0.756901 0.249451 0.286196
221 1 0.498458 0.235069 0.79665
222 1 0.995387 0.249479 0.797905
223 1 0.994941 0.758373 0.281067