LAMMPS data file via write_data, version 15 Apr 2020, timestep = 80000

672 atoms
4 atom types

1.1526312488429511e+00 2.8829369102156338e+01 xlo xhi
-1.1814844719317108e+00 1.3335484754231960e+01 ylo yhi
3.2239076494319541e-01 1.9694609433457497e+01 zlo zhi
-5.8627655003276435e-02 -4.4986628838687828e-02 -2.0656233960843273e-01 xy xz yz

Masses

1 12.0107
2 14.0067
3 15.9994
4 1.00794

Atoms # full

1 1 1 1.0687202796115913e-01 5.2827081011419930e+00 7.2870275969311415e-01 3.2196575416937887e+00 0 0 0
2 1 1 8.9484820257826725e-02 1.8939641234031637e+01 7.4230477602617295e-01 3.2403891891082726e+00 0 0 0
3 1 1 1.0789842375362371e-01 1.0778620094497276e+01 1.1517308693871326e+01 1.2988272337844615e+01 0 0 0
4 1 1 8.8271100134809252e-02 2.4413835728138846e+01 1.1244956914905933e+01 1.2901599311177089e+01 0 0 0
5 1 1 9.5068250639535667e-02 1.2234157357626330e+01 1.1199458216467074e+01 3.0583075848457177e+00 0 0 0
6 1 1 1.2344037174353789e-01 2.5951682933700830e+01 1.1014617474084103e+01 3.1244341616140447e+00 0 0 0
7 1 1 1.0031057313026710e-01 3.7505414760252629e+00 6.8074447420875028e-01 1.2736004906280185e+01 0 0 0
8 1 1 1.1353761772236111e-01 1.7662314524736548e+01 6.5774572197139780e-01 1.3022947272539502e+01 0 0 0
9 1 1 8.9807890921266856e-02 5.2561716366619269e+00 7.5616774918292826e+00 3.2484764761431224e+00 0 0 0
10 1 1 1.0855031070218735e-01 1.9347330023583851e+01 7.7933934241024758e+00 3.4838002744668124e+00 0 0 0
11 1 1 8.9522406043414091e-02 1.0656416725293237e+01 4.1692706303138740e+00 1.3038892860859836e+01 0 0 0
12 1 1 9.0265120911571614e-02 2.4721838684794669e+01 4.0907764737377397e+00 1.3099795988386585e+01 0 0 0
13 1 1 1.1901777592044306e-01 1.2202524933020010e+01 4.0412197073141574e+00 3.2324958146585838e+00 0 0 0
14 1 1 1.1087354064934000e-01 2.6130355717182756e+01 3.9809030936261998e+00 3.4330365805170251e+00 0 0 0
15 1 1 1.1324247542659209e-01 4.0153975435504679e+00 8.0322306934908099e+00 1.2922736685748864e+01 0 0 0
16 1 1 8.8030109956923092e-02 1.7863440328212864e+01 7.7422350077492244e+00 1.2833821421213033e+01 0 0 0
17 1 1 1.3569681326126053e-02 6.5712450852126425e+00 1.5632537551011905e-01 2.9730678913602473e+00 0 0 0
18 1 1 9.6116176350734203e-03 2.0238579053317018e+01 1.3121213810802157e-01 3.1526807881344578e+00 0 0 0
19 1 1 1.9780600840178623e-02 9.6535103042260264e+00 1.2234034876341763e+01 1.2602235862471495e+01 0 0 0
20 1 1 1.5793141218031933e-02 2.3298572902103892e+01 1.2155244736851206e+01 1.2675818620411901e+01 0 0 0
21 1 1 1.7697692412203141e-02 1.3465486635982117e+01 1.1862630313312703e+01 2.8524804921474218e+00 0 0 0
22 1 1 2.2936145907135816e-02 2.7346283618294798e+01 1.1546654445368571e+01 3.1160711888444479e+00 0 0 0
23 1 1 1.6880469700680977e-02 2.4882329912492267e+00 -2.6961568746555198e-03 1.2514718788295671e+01 0 0 0
24 1 1 1.6234004397381898e-02 1.6436884781919240e+01 3.7923869625789752e-02 1.2567076924822198e+01 0 0 0
25 1 1 9.9476299586837812e-03 6.4577575595528867e+00 6.8044506497892741e+00 3.0514114710402165e+00 0 0 0
26 1 1 5.5133283430120993e-03 2.0570742107481010e+01 7.2821745441656631e+00 2.9900055313792642e+00 0 0 0
27 1 1 8.8921241504229948e-04 9.4668728059498601e+00 4.9595555549301737e+00 1.2899389474595631e+01 0 0 0
28 1 1 1.6559848818343943e-02 2.3588236737885470e+01 4.9528584181314654e+00 1.3123785906469564e+01 0 0 0
29 1 1 1.1889614939538898e-02 1.3376136488377094e+01 4.8358729934757836e+00 3.1586393734391831e+00 0 0 0
30 1 1 1.3957494028694530e-02 2.7223031066473656e+01 4.8475398297384116e+00 3.2010409718504369e+00 0 0 0
31 1 1 1.2095328723572454e-02 2.7859148189820777e+00 7.2908237278590633e+00 1.3117512873268780e+01 0 0 0
32 1 1 1.3712277148751416e-02 1.6576859915522341e+01 7.1274571816245871e+00 1.2637693309296807e+01 0 0 0
33 1 1 -2.8501442150417663e-02 7.4644818411539404e+00 8.5319470682125997e-01 2.0851587463631525e+00 0 0 0
34 1 1 -3.9191082592680455e-02 2.1186518600039363e+01 8.3093420942589047e-01 2.3225717306515019e+00 0 0 0
35 1 1 -2.9885485073338124e-02 8.9613253028769648e+00 1.1716802995027033e+01 1.1439658213059765e+01 0 0 0
36 1 1 -2.5889288351995159e-02 2.2344139288940518e+01 1.1639209696440080e+01 1.1831844086476814e+01 0 0 0
37 1 1 -2.4403077012587926e-02 1.4452284037639036e+01 1.1221749688642493e+01 2.0503213781257710e+00 0 0 0
38 1 1 -2.4344598697819308e-02 2.8185346078213943e+01 1.1010277889387151e+01 2.1528738595051866e+00 0 0 0
39 1 1 -3.1052716272441407e-02 1.5048821123710105e+00 7.1123370744184644e-01 1.1849892288859628e+01 0 0 0
40 1 1 -3.3003912106810175e-02 1.5728404022749080e+01 7.5622773235843188e-01 1.1529504302916353e+01 0 0 0
41 1 1 -3.1072073670578376e-02 7.4943332784423875e+00 7.3885086318523001e+00 2.2680293510068119e+00 0 0 0
42 1 1 -1.8549099973785305e-02 2.1450178250790216e+01 8.2054888286854553e+00 2.2953643627774838e+00 0 0 0
43 1 1 -2.5381859388226347e-02 8.6424626940086977e+00 4.5547656320145062e+00 1.1795740088796755e+01 0 0 0
44 1 1 -1.6448229941788895e-02 2.2488202131830182e+01 4.7199510068015780e+00 1.2185865210496200e+01 0 0 0
45 1 1 -2.7127831279170865e-02 1.4330191287860513e+01 4.3657761709869014e+00 2.2100375805471861e+00 0 0 0
46 1 1 -1.2887493044063971e-02 2.8268563934177546e+01 4.3438794183801610e+00 2.3894183664945938e+00 0 0 0
47 1 1 -3.0459505630017116e-02 1.7686092154128543e+00 7.7085419196417071e+00 1.2221687300628520e+01 0 0 0
48 1 1 -2.1044487648059579e-02 1.5720418101644277e+01 7.6825758276604059e+00 1.1648169343790363e+01 0 0 0
49 1 1 4.9590580782631483e-02 7.0836437352364543e+00 2.0948053528311719e+00 1.5378180871033766e+00 0 0 0
50 1 1 5.0229853488147971e-02 2.0978963453358034e+01 2.0966927818662588e+00 1.7321510437690724e+00 0 0 0
51 1 1 3.9379000178819276e-02 9.1872562026515610e+00 1.0423724168664970e+01 1.0913836484106785e+01 0 0 0
52 1 1 4.9382430186178577e-02 2.2243306781055253e+01 1.0314744636286179e+01 1.1264777627707089e+01 0 0 0
53 1 1 3.7485055114914297e-02 1.4200118550943117e+01 9.9519805290710686e+00 1.5074179515836621e+00 0 0 0
54 1 1 4.6211916901863097e-02 2.7834708928069272e+01 9.7981553662690857e+00 1.4596837626417694e+00 0 0 0
55 1 1 4.8946207265719480e-02 1.6512092376607637e+00 2.0501713417917005e+00 1.1361563980206254e+01 0 0 0
56 1 1 3.6947718295676085e-02 1.5890792176324192e+01 2.1573004260578217e+00 1.1347891171170316e+01 0 0 0
57 1 1 3.5268215296459286e-02 7.4065121919920642e+00 8.7075644060391024e+00 1.7121411802182218e+00 0 0 0
58 1 1 3.9706548687716878e-02 2.1024027929160027e+01 9.4730486503746381e+00 1.7899180286831120e+00 0 0 0
59 1 1 4.5912419388592848e-02 8.7979493431048255e+00 3.3263487409384096e+00 1.1158679232289629e+01 0 0 0
60 1 1 5.3931157470680516e-02 2.2401033906962745e+01 3.5391871374561550e+00 1.1382292959335423e+01 0 0 0
61 1 1 5.3347807150075609e-02 1.4211278578561737e+01 3.1985803343621946e+00 1.4448807161722295e+00 0 0 0
62 1 1 3.9719228352280228e-02 2.8197869493507724e+01 3.0909652430270471e+00 1.7326837823412720e+00 0 0 0
63 1 1 4.8097245034620539e-02 1.8685992346395741e+00 8.9159929487680873e+00 1.1455402163049635e+01 0 0 0
64 1 1 4.0517932308694132e-02 1.6058933324640297e+01 8.9241748459615611e+00 1.1047500618113844e+01 0 0 0
65 1 1 -3.2088988245769876e-02 5.9019739793170833e+00 2.7268607112698766e+00 2.0560398877188009e+00 0 0 0
66 1 1 -2.8193740930661473e-02 1.9811316754752784e+01 2.7537308062679355e+00 2.1588731459501203e+00 0 0 0
67 1 1 -3.8426761611380936e-02 1.0301809282180384e+01 9.6915595101945531e+00 1.1489765160207282e+01 0 0 0
68 1 1 -4.2401669540568197e-02 2.3301298590866452e+01 9.4715518962719560e+00 1.1648411833839781e+01 0 0 0
69 1 1 -3.1274504936464408e-02 1.2989290011307652e+01 9.2786193605336624e+00 1.9184169315405764e+00 0 0 0
70 1 1 -3.8807727379802759e-02 2.6733337488810008e+01 9.0544308900692201e+00 2.0539233788123088e+00 0 0 0
71 1 1 -4.2261933814943663e-02 2.9199669750949173e+00 2.6863726584832914e+00 1.1629341393361374e+01 0 0 0
72 1 1 -5.8696965187426925e-02 1.7044515124793385e+01 2.6827311957172015e+00 1.2011232690515204e+01 0 0 0
73 1 1 -2.3675247143390362e-02 6.1691893096769146e+00 9.4155501231481171e+00 1.9674645837376905e+00 0 0 0
74 1 1 -4.2470965399498899e-02 1.9797349680280028e+01 9.9807597738487974e+00 2.3929149196057242e+00 0 0 0
75 1 1 -3.2440227657048168e-02 9.8924240440765274e+00 2.4532027674473080e+00 1.1524050191575697e+01 0 0 0
76 1 1 -1.1161300700849974e-02 2.3420907424663469e+01 2.5939365258076283e+00 1.1608067874763023e+01 0 0 0
77 1 1 -4.3273908222319524e-02 1.3099980100949347e+01 2.3661939050370981e+00 1.7917299335888963e+00 0 0 0
78 1 1 -3.5234281804733369e-02 2.7101714617268076e+01 2.2318379505934276e+00 2.0708153541269434e+00 0 0 0
79 1 1 -3.4022644786232625e-02 3.0055058543147561e+00 9.7653836909779930e+00 1.1654263134629714e+01 0 0 0
80 1 1 -2.7888671839881377e-02 1.7204336773977587e+01 9.6331945841341078e+00 1.1490033806884121e+01 0 0 0
81 1 1 1.9174296746801572e-02 4.8917620554956152e+00 2.0489665358630154e+00 2.8489859131624300e+00 0 0 0
82 1 1 1.5202483404735546e-02 1.8753139215182149e+01 2.1274070683811384e+00 2.8904750379800617e+00 0 0 0
83 1 1 2.1476716236200517e-02 1.1101712172643598e+01 1.0199784249560464e+01 1.2553032562743356e+01 0 0 0
84 1 1 1.7282621017507507e-02 2.4479819498140920e+01 9.9382273882754255e+00 1.2333769774656947e+01 0 0 0
85 1 1 1.0266939051779406e-02 1.1940611940736932e+01 9.8289643352564990e+00 2.7068564038083696e+00 0 0 0
86 1 1 1.8621998984818582e-02 2.5685097794933306e+01 9.6889222834988207e+00 2.7854548957708682e+00 0 0 0
87 1 1 1.7825927300738974e-02 3.9422609260616484e+00 2.0700214409210993e+00 1.2423882264622675e+01 0 0 0
88 1 1 2.4811494369744894e-02 1.8018521179127465e+01 1.9861288875829319e+00 1.2780229098043694e+01 0 0 0
89 1 1 3.4284337455194519e-02 5.1209974725776011e+00 8.8702184299364557e+00 2.7441385595692700e+00 0 0 0
90 1 1 2.8577556397091145e-02 1.8983137265289017e+01 9.1606780117540971e+00 3.1907631120663962e+00 0 0 0
91 1 1 2.8478045803314003e-02 1.0872267799012697e+01 2.9151024145314990e+00 1.2398240691247269e+01 0 0 0
92 1 1 2.6892859800905861e-02 2.4632473180365253e+01 2.9155640919530184e+00 1.2277047475264286e+01 0 0 0
93 1 1 3.4745548209393427e-02 1.2065587049037328e+01 2.7081323522152885e+00 2.7033591989904435e+00 0 0 0
94 1 1 2.8258038564465345e-02 2.6015596053305600e+01 2.6230460987076789e+00 2.9065789120923928e+00 0 0 0
95 1 1 3.8827442143247383e-02 4.1606477543771128e+00 9.3291283383447965e+00 1.2349682065931775e+01 0 0 0
96 1 1 1.8569747600950256e-02 1.8170342551699996e+01 9.0231280824024722e+00 1.2335919388488529e+01 0 0 0
97 1 1 -2.6071188139373597e-01 4.2270522052253172e+00 -2.1359513234205285e-01 3.8779526019180635e+00 0 1 0
98 1 1 -2.5273152712103070e-01 1.7818604959868470e+01 -6.4718453024658507e-02 3.9660517061962364e+00 0 1 0
99 1 1 -2.6494513511936463e-01 1.1824163841900663e+01 1.2259021227139424e+01 1.3916841431243272e+01 0 -1 0
100 1 1 -2.6590798317082603e-01 2.5555927917211974e+01 1.1732165741727190e+01 1.3834476742444835e+01 0 -1 0
101 1 1 -2.7872923271518546e-01 1.1036928541374095e+01 1.1965060495634335e+01 3.7585219738986071e+00 0 -1 0
102 1 1 -2.7389648791648791e-01 2.4715847084410754e+01 1.1803620883676853e+01 3.6686172666393584e+00 0 -1 0
103 1 1 -2.6883469065961818e-01 4.9534324668833980e+00 -1.7559328979331323e-01 1.3246548174366628e+01 0 1 0
104 1 1 -2.6716027849528196e-01 1.8667678555914009e+01 -1.8600290434236078e-01 1.3926198092293031e+01 0 1 0
105 1 1 -2.7276589536445695e-01 4.0239694707396394e+00 6.9835348545727260e+00 4.0099578716424933e+00 0 0 0
106 1 1 -2.6738991309644355e-01 1.8358185953399506e+01 6.8700023760513300e+00 4.2317665786759644e+00 0 0 0
107 1 1 -2.5996775308042475e-01 1.1604673735946781e+01 4.6404225279828060e+00 1.4163745291812813e+01 0 0 0
108 1 1 -2.8767213506196615e-01 2.6011008251736161e+01 4.3537757182626127e+00 1.3948111717815324e+01 0 0 0
109 1 1 -2.6818241283904876e-01 1.1033221992815523e+01 4.7350522282334042e+00 4.0478169528820018e+00 0 0 0
110 1 1 -2.7018797257779070e-01 2.4886765016969772e+01 4.6045196231472225e+00 4.1665866533741287e+00 0 0 0
111 1 1 -2.7164378929284638e-01 5.2271286290189831e+00 7.2938984942466369e+00 1.3583192737161797e+01 0 0 0
112 1 1 -2.7789387472828897e-01 1.8909765967906743e+01 6.9409435064234408e+00 1.3735773903079734e+01 0 0 0
113 1 1 1.0369226283196301e-01 9.3254499906139969e+00 3.2281586457115941e-01 1.6868267657269662e+01 0 0 0
114 1 1 8.0449600959565506e-02 2.3085726420450627e+01 2.4827994913947893e-01 1.6978471462414269e+01 0 0 0
115 1 1 1.0854153046314607e-01 6.7734445948680033e+00 1.1510394668629687e+01 6.9540672759102282e+00 0 0 0
116 1 1 1.1076962971293688e-01 2.0867387368576097e+01 1.1372309073293525e+01 6.9481442067162762e+00 0 0 0
117 1 1 1.1132922955162791e-01 2.1445953394222395e+00 1.1444263744133064e+01 1.6702783409032094e+01 0 0 0
118 1 1 9.1369213829136806e-02 1.5945711039453514e+01 1.1556492798041711e+01 1.6679688184701426e+01 0 0 0
119 1 1 9.1798924518451674e-02 1.3992472143640549e+01 5.0046502995796804e-01 6.9403046506695381e+00 0 0 0
120 1 1 1.0742645907531706e-01 2.7682392543496860e+01 2.2090080058696748e-01 7.2021441974717710e+00 0 0 0
121 1 1 1.1393592972253154e-01 9.0229477642190421e+00 7.6582232502988870e+00 1.6889070972137034e+01 0 0 0
122 1 1 1.0071843342325010e-01 2.3017273054087863e+01 7.4099312478568446e+00 1.7216138843229359e+01 0 0 0
123 1 1 1.0833429287520219e-01 6.8593208508139014e+00 4.0348625414849550e+00 7.2044465843297267e+00 0 0 0
124 1 1 9.4882142586371954e-02 2.0717523822198185e+01 4.2627868886683764e+00 7.0206129455679331e+00 0 0 0
125 1 1 1.1094948346485706e-01 2.3274359941000871e+00 4.0367483406011022e+00 1.6844805879718564e+01 0 0 0
126 1 1 1.0565559997541130e-01 1.6080959600057991e+01 4.3370143718059477e+00 1.6732481629832158e+01 0 0 0
127 1 1 1.0703007145126942e-01 1.3868215986061211e+01 7.8604257803150208e+00 7.1570238147021126e+00 0 0 0
128 1 1 1.2183509841972193e-01 2.7507951175561839e+01 7.6282445221026460e+00 7.1021432600313910e+00 0 0 0
129 1 1 2.6240151591272406e-02 1.0588593079608589e+01 9.2946395890959410e-01 1.7180557453459222e+01 0 0 0
130 1 1 1.3642149574841979e-02 2.4386010895542633e+01 7.9857849271265291e-01 1.7325695244651214e+01 0 0 0
131 1 1 2.8061313290324158e-02 5.5143807847026363e+00 1.0918019819032551e+01 7.3449914627144208e+00 0 0 0
132 1 1 2.8390269302346092e-02 1.9568222672504017e+01 1.0811053656247843e+01 7.1823247682885691e+00 0 0 0
133 1 1 3.0432538716032281e-02 3.4471701779968686e+00 1.1022776724283911e+01 1.7140780322795841e+01 0 0 0
134 1 1 3.0016659866417619e-02 1.7109486697940799e+01 1.0849969642067714e+01 1.7085966599911920e+01 0 0 0
135 1 1 2.3837636542355552e-02 1.2659195356056768e+01 8.3357672102974867e-01 7.1924641461581160e+00 0 0 0
136 1 1 3.7916011932140059e-02 2.6456483088942843e+01 8.4789412799602193e-01 7.5895795057845703e+00 0 0 0
137 1 1 3.6390480520983738e-02 1.0328257395865617e+01 8.2045669442987599e+00 1.7068112358034909e+01 0 0 0
138 1 1 2.2373101868524752e-02 2.4294172590710549e+01 7.9445724043158190e+00 1.7518415411079452e+01 0 0 0
139 1 1 3.0210369870145082e-02 5.5084079076399366e+00 3.6124137770674460e+00 7.5288560354562035e+00 0 0 0
140 1 1 2.1956920340313338e-02 1.9474843537174106e+01 3.6643168387002287e+00 7.3870554245977589e+00 0 0 0
141 1 1 4.5569781874388440e-02 3.6124939760030066e+00 3.4728099374555006e+00 1.7153786259908856e+01 0 0 0
142 1 1 3.1339217875568141e-02 1.7391324086642328e+01 3.8272971434323058e+00 1.6956689227320183e+01 0 0 0
143 1 1 2.9330441874620094e-02 1.2630693230397087e+01 8.4616696037809511e+00 7.5470638929100975e+00 0 0 0
144 1 1 3.2557832068429347e-02 2.6293956156052154e+01 8.2736902408662996e+00 7.4453844089826715e+00 0 0 0
145 1 1 -3.2240592042626935e-02 1.1546780481471185e+01 2.8206634090487470e-01 1.8009176058630587e+01 0 0 0
146 1 1 -2.2769256185664957e-02 2.5187361191319319e+01 -5.6720274980618157e-02 1.8150350141955258e+01 0 0 0
147 1 1 -1.5865985877324257e-02 4.7816576875774173e+00 1.1596589414513183e+01 8.3950015487822647e+00 0 0 0
148 1 1 -1.5415466845904745e-02 1.8702171599605890e+01 1.1571171515036742e+01 8.0344005110286574e+00 0 0 0
149 1 1 -3.3496589317913328e-02 4.1021887730660955e+00 1.1813621341016836e+01 1.8149933488483981e+01 0 0 0
150 1 1 -3.5220248060579870e-02 1.8009872101200468e+01 1.1695212622212740e+01 1.7816050330904062e+01 0 0 0
151 1 1 -1.8783701774199087e-02 1.1890600274596760e+01 4.0763075452273423e-02 8.0828654470858190e+00 0 0 0
152 1 1 -1.0672754706911071e-02 2.5710698226098685e+01 3.3121615788178627e-03 8.4838546281974754e+00 0 0 0
153 1 1 -2.7975644113806184e-02 1.1222574890161340e+01 7.3951879779327783e+00 1.7801190103696584e+01 0 0 0
154 1 1 -2.2162846289550554e-02 2.5124597799474987e+01 6.9741201157672403e+00 1.8192495887104783e+01 0 0 0
155 1 1 -1.3527182683247031e-02 4.6928502660514688e+00 4.5431126121840935e+00 8.2349781826578550e+00 0 0 0
156 1 1 -2.5220812407018386e-02 1.8607990945873709e+01 4.4632893573196402e+00 8.1662970539018520e+00 0 0 0
157 1 1 -1.6350367373297217e-02 4.4370986545833420e+00 4.3172393315905699e+00 1.7915996195729882e+01 0 0 0
158 1 1 -1.8700856894020054e-02 1.8223439906573486e+01 4.5370982586973154e+00 1.7846602655947891e+01 0 0 0
159 1 1 -2.7608377838392800e-02 1.1753557862107574e+01 7.6055889863377502e+00 8.3172746179520232e+00 0 0 0
160 1 1 -1.6807169914256036e-03 2.5408010402491964e+01 7.5690426734680258e+00 8.3292084287389567e+00 0 0 0
161 1 1 5.2540297937067611e-02 1.1273678523833951e+01 -1.0356708036366158e+00 1.8448720497779718e+01 0 0 0
162 1 1 3.1730341953863546e-02 2.4655733031184855e+01 1.3103508572584703e+01 1.8414157003298996e+01 0 -1 0
163 1 1 3.8377449078495475e-02 5.0163094136930670e+00 1.3000749689115905e+01 8.5847676735138556e+00 0 0 0
164 1 1 5.3894727881109564e-02 1.8966878823426097e+01 1.2809276593081909e+01 8.5497004361582505e+00 0 0 0
165 1 1 3.4725489952026352e-02 3.5122133760823981e+00 1.3020339666373788e+01 1.8559395397898172e+01 0 0 0
166 1 1 2.9704795519590023e-02 1.7838034280956172e+01 1.3049942726337358e+01 1.8166248863726913e+01 0 0 0
167 1 1 2.9796213209711778e-02 1.2609753162942594e+01 -9.5287259673049407e-01 8.8150477107922018e+00 0 0 0
168 1 1 4.8838412416159417e-02 2.6100187271425206e+01 -1.2479698480114076e+00 8.9725393446029607e+00 0 0 0
169 1 1 4.6872299026434833e-02 1.0950515003345524e+01 6.0789756876613845e+00 1.8240378189779776e+01 0 0 0
170 1 1 4.9918999401408065e-02 2.4636777590018024e+01 5.6867406347817209e+00 1.8625729196809608e+01 0 0 0
171 1 1 5.3207750271231077e-02 5.0984523029063276e+00 5.8288882005243341e+00 8.6375316303256948e+00 0 0 0
172 1 1 3.3752556393174142e-02 1.8882254596538484e+01 5.8485525633712081e+00 8.4941119307683888e+00 0 0 0
173 1 1 5.4565293507998797e-02 4.1005679316004091e+00 5.6877921671467151e+00 1.8205975046132728e+01 0 0 0
174 1 1 5.2564783642039523e-02 1.7855218234219432e+01 5.7816870610091362e+00 1.8458444930986396e+01 0 0 0
175 1 1 5.0419986300835842e-02 1.2059146026466065e+01 6.3240290633710821e+00 8.7837687578517976e+00 0 0 0
176 1 1 3.9510879207502105e-02 2.5636134854664622e+01 6.2475840168142369e+00 8.7744056362384448e+00 0 0 0
177 1 1 -4.0087907253352317e-02 9.9864240920907008e+00 1.2863359147004269e+01 1.8042915318623379e+01 0 -1 0
178 1 1 -3.1628476727200067e-02 2.3484275938187547e+01 1.2596498184872550e+01 1.7855211395034551e+01 0 -1 0
179 1 1 -3.2021235620030494e-02 6.1404604168405985e+00 -8.7102203808777756e-01 7.8965367949773615e+00 0 1 0
180 1 1 -3.2203582487576876e-02 2.0309888567366446e+01 -1.1220234504306481e+00 8.1868603949940528e+00 0 1 0
181 1 1 -4.8270580779940078e-02 2.3426646678863152e+00 -1.0783681681477584e+00 1.7978937976887131e+01 0 1 0
182 1 1 -4.7846030879067122e-02 1.6721464323425437e+01 -7.9801122360938259e-01 1.7595722929187566e+01 0 1 0
183 1 1 -3.0099970172016089e-02 1.3859048247127564e+01 1.3126374278984450e+01 8.3763456330595094e+00 0 -1 0
184 1 1 -4.2280969361186881e-02 2.7284051539087450e+01 1.2726226576429752e+01 8.5274425731153549e+00 0 -1 0
185 1 1 -4.2256182412988813e-02 9.6676532597228135e+00 5.6177981032236284e+00 1.7877821325726963e+01 0 0 0
186 1 1 -2.3978400603005563e-02 2.3408958598674328e+01 5.2066342379341775e+00 1.8147497325113790e+01 0 0 0
187 1 1 -3.2355058743227028e-02 6.3757654139928537e+00 6.2351912636121716e+00 8.2021305553834054e+00 0 0 0
188 1 1 -3.8207929033595892e-02 2.0083703319128290e+01 6.4008107849346274e+00 8.0321918679939870e+00 0 0 0
189 1 1 -2.8182825880946658e-02 2.9002770443271206e+00 6.2340541312960980e+00 1.7632932237033117e+01 0 0 0
190 1 1 -1.8226018987924090e-02 1.6568195757940366e+01 6.2896191953715608e+00 1.8145194970896547e+01 0 0 0
191 1 1 -3.3005204686469558e-02 1.3343358212832571e+01 5.8225904824413011e+00 8.4309611780730460e+00 0 0 0
192 1 1 -2.8238615014280457e-02 2.6830509743256020e+01 5.6013067797470866e+00 8.3332506137899731e+00 0 0 0
193 1 1 1.8683463885363891e-02 9.0447931074420040e+00 -1.0143210570387369e+00 1.7255952347708487e+01 0 0 0
194 1 1 1.2846131618028882e-02 2.2595870560218593e+01 -1.0834426195384810e+00 1.7181633506661839e+01 0 0 0
195 1 1 7.4237031061173790e-03 7.0725553618673285e+00 1.2882550566779896e+01 7.1880019443130712e+00 0 0 0
196 1 1 1.4530383462525869e-02 2.1243917946711825e+01 1.2664082527893441e+01 7.4836235071615169e+00 0 0 0
197 1 1 2.8420085823659805e-02 1.5662560585975783e+01 1.2936686352564337e+01 1.6971627752901398e+01 0 0 0
198 1 1 9.9773938039281786e-03 1.5666687861737469e+00 1.2676728708600884e+01 1.7049569650771289e+01 1 0 0
199 1 1 2.2635013189050535e-02 2.8189856660090005e+01 -1.0614567994866455e+00 7.6413306017408349e+00 -1 0 0
200 1 1 3.0293935736597426e-02 1.4597005428161614e+01 -7.6088613668117455e-01 7.3269857800399576e+00 0 0 0
201 1 1 2.0767556386320066e-02 8.6791311730522622e+00 6.2661705116957185e+00 1.7102724650359761e+01 0 0 0
202 1 1 4.7836902628278444e-02 2.2531590941536837e+01 6.0919854469538679e+00 1.7315923995326237e+01 0 0 0
203 1 1 2.1356435278754183e-02 7.2807469010779107e+00 5.3737212023985839e+00 7.4698329839783897e+00 0 0 0
204 1 1 4.2310620237626523e-03 2.1022885998147640e+01 5.6497244947644871e+00 7.2758900194462726e+00 0 0 0
205 1 1 3.2747505716825817e-02 1.5645205289677492e+01 5.6230943148357841e+00 1.7270105405258676e+01 0 0 0
206 1 1 4.0072073402578567e-02 1.9567191129459558e+00 5.4267011369057894e+00 1.6916689437360382e+01 1 0 0
207 1 1 4.1455800855536545e-02 2.7779274833431238e+01 6.2597868959593930e+00 7.5219323581392743e+00 -1 0 0
208 1 1 2.2950264959227432e-02 1.4176098195249914e+01 6.4913426519328619e+00 7.4961343804878666e+00 0 0 0
209 1 1 -2.6850492028243561e-01 8.2256861039747591e+00 1.2348417643212444e+00 1.6199985329920665e+01 0 0 0
210 1 1 -2.8672191911774875e-01 2.2199244558348571e+01 1.1950571613067353e+00 1.6092355258729661e+01 0 0 0
211 1 1 -2.6057302561436801e-01 7.8258853753326711e+00 1.0612808448209364e+01 6.3460403808415622e+00 0 0 0
212 1 1 -2.7998202427770413e-01 2.1932566225195547e+01 1.0546548836228471e+01 6.1774530314852498e+00 0 0 0
213 1 1 -2.8198670386325231e-01 1.4976076944744282e+01 1.0689977701280153e+01 1.5797086530106078e+01 0 0 0
214 1 1 -2.5365775724097434e-01 1.2381830604288215e+00 1.0250431583592016e+01 1.6139071494691031e+01 1 0 0
215 1 1 -2.7529795786280370e-01 2.8603635504448640e+01 1.0867997752398524e+00 6.2190409865015788e+00 -1 0 0
216 1 1 -2.7960275145911462e-01 1.4852292774058725e+01 1.5090056504662508e+00 6.1344611933817159e+00 0 0 0
217 1 1 -2.7260425562995988e-01 7.8726165927315321e+00 8.5154985211600422e+00 1.6273829513300644e+01 0 0 0
218 1 1 -2.6756263158729726e-01 2.2196217666938246e+01 8.4529936134761936e+00 1.6411315203512117e+01 0 0 0
219 1 1 -2.7158427752707204e-01 7.8358573176523096e+00 3.0406243482873947e+00 6.5407790435685991e+00 0 0 0
220 1 1 -2.7656272466689003e-01 2.1783564305226449e+01 3.3185895089695654e+00 6.4263632514228552e+00 0 0 0
221 1 1 -2.7389037752803158e-01 1.5139806977452020e+01 3.5347933081183687e+00 1.5828776162079915e+01 0 0 0
222 1 1 -2.9003540859617871e-01 1.1592295161003670e+00 3.0431879677780129e+00 1.6535737302333466e+01 1 0 0
223 1 1 -2.6728468702950980e-01 2.8646929690730325e+01 8.4648178714336169e+00 6.4447054261757790e+00 -1 0 0
224 1 1 -2.7317239180265296e-01 1.4943640701842346e+01 8.7407313280902041e+00 6.3752338668356439e+00 0 0 0
225 1 2 3.8033102887818276e-01 6.9748712357081697e+00 -1.2109756185168632e+00 3.4799742157292211e+00 0 1 0
226 1 2 3.6217699027847589e-01 2.0668717321116826e+01 -1.1686908073612312e+00 3.7875324857830019e+00 0 1 0
227 1 2 3.8587940511144031e-01 9.3700969102283249e+00 -9.0556122103638137e-01 1.3183386704003237e+01 0 0 0
228 1 2 3.5870016001011107e-01 2.3287454491334366e+01 -9.0815350880200896e-01 1.3133723661456800e+01 0 0 0
229 1 2 3.9294766175375118e-01 1.3889334884051097e+01 1.3110040683808570e+01 3.6357503891909149e+00 0 -1 0
230 1 2 3.7534401468822992e-01 2.7708241614869227e+01 1.2897302061291313e+01 3.7663168360692101e+00 0 -1 0
231 1 2 3.6731005373969355e-01 2.2004539737564590e+00 1.3026529240786781e+01 1.2822706915002080e+01 0 0 0
232 1 2 3.6066196709123688e-01 1.5774098455431847e+01 -1.1806680727769516e+00 1.3185815452648885e+01 0 1 0
233 1 2 3.7083815490824912e-01 6.6586473800541714e+00 5.4281799164873084e+00 3.7146029167734103e+00 0 0 0
234 1 2 3.9097588490482899e-01 2.1096056404593551e+01 5.8979947995296458e+00 3.2667551109769484e+00 0 0 0
235 1 2 3.7725872100886643e-01 9.2204084443671874e+00 6.2124033927961300e+00 1.3696842245707984e+01 0 0 0
236 1 2 3.8396093877677839e-01 2.3484768491361500e+01 6.0773654271120030e+00 1.4131514043960101e+01 0 0 0
237 1 2 3.5038158854171414e-01 1.3619583862685271e+01 6.1395870012239797e+00 3.9152558880792521e+00 0 0 0
238 1 2 3.6613382193527105e-01 2.7354031825111068e+01 6.1991828658876180e+00 3.9815062215871087e+00 0 0 0
239 1 2 3.7065506144460292e-01 2.6348134587840750e+00 5.9760492082571446e+00 1.3837160626625646e+01 0 0 0
240 1 2 3.6282147656123004e-01 1.6012451511469472e+01 5.9026214367355463e+00 1.3399479056582377e+01 0 0 0
241 1 2 3.7382122323727468e-01 8.0182380070282520e+00 2.7606403867878284e+00 4.5337460110763866e-01 0 0 0
242 1 2 3.4891759226964775e-01 2.1814070613975719e+01 2.7086528390821254e+00 5.9185856967300632e-01 0 0 0
243 1 2 3.5855565577559712e-01 8.2009034820680835e+00 9.8536715337947136e+00 9.9226042207711558e+00 0 0 0
244 1 2 3.6507095414974039e-01 2.1373161771533859e+01 9.9005298524874732e+00 1.0093550814446624e+01 0 0 0
245 1 2 3.8229200009158043e-01 1.5182662901236622e+01 9.3261457840106132e+00 5.3737282273668863e-01 0 0 0
246 1 2 3.6600656148515126e-01 2.8507450492310461e+01 9.0892067090069677e+00 1.9590151494348611e+01 0 0 -1
247 1 2 3.7445907264477435e-01 2.8223354035099121e+01 2.6450048772968331e+00 1.0478552638494380e+01 -1 0 0
248 1 2 3.5286815806909688e-01 1.4813442516608692e+01 3.0018081274678838e+00 1.0584846999710887e+01 0 0 0
249 1 2 3.3989558405725434e-01 8.5540618034880413e+00 9.2626713203912114e+00 8.8805647010480160e-01 0 0 0
250 1 2 3.2715821497254438e-01 2.1796162616882825e+01 1.0176659388914198e+01 7.2019860744173991e-01 0 0 0
251 1 2 3.5524454140839523e-01 7.7063082224586061e+00 2.9337333136672736e+00 1.0139075203893421e+01 0 0 0
252 1 2 3.6306034101692941e-01 2.1268357569204962e+01 3.1891629995308692e+00 1.0415831133293596e+01 0 0 0
253 1 2 3.6965845680530651e-01 1.5157317301998587e+01 2.7320726888944313e+00 1.9658732628219873e+01 0 0 -1
254 1 2 3.9243257129205189e-01 1.4263317095510266e+00 2.8037508991057307e+00 5.5829090199835596e-01 1 0 0
255 1 2 3.7935092081012578e-01 2.8587842702870127e+01 9.2082564868911909e+00 1.0303950385629630e+01 -1 0 0
256 1 2 3.7463752306497272e-01 1.5081924784834740e+01 9.5578245309589125e+00 1.0036609995383406e+01 0 0 0
257 1 2 4.1936803626225022e-01 3.4879677091076138e+00 2.6283287457820759e+00 3.1250170032730633e+00 0 0 0
258 1 2 4.1282491050424269e-01 1.7390181488986361e+01 2.8758343711003080e+00 3.1259779124082088e+00 0 0 0
259 1 2 3.7159133851511522e-01 1.2090217149143783e+01 9.2235779764718799e+00 1.3207401690393541e+01 0 0 0
260 1 2 3.6987486435269645e-01 2.5718101343045063e+01 9.0722724380088540e+00 1.2379242849463470e+01 0 0 0
261 1 2 3.9717788930502701e-01 1.0871782849173931e+01 8.9273166646113289e+00 3.3451484412388712e+00 0 0 0
262 1 2 4.2722520926948054e-01 2.4448159038957847e+01 8.8543715904340008e+00 3.2492488299156763e+00 0 0 0
263 1 2 3.5106435948781178e-01 5.1238890783752487e+00 2.9756744830925728e+00 1.2799147327703032e+01 0 0 0
264 1 2 4.0991910916600899e-01 1.9296813649139807e+01 2.7113666369238016e+00 1.3324181392301229e+01 0 0 0
265 1 2 4.0897456112359476e-01 3.7577664406231057e+00 9.6957488514549368e+00 2.8682867781376316e+00 0 0 0
266 1 2 4.0021787252257329e-01 1.7584126846998522e+01 9.6671414676335470e+00 3.5932030672077651e+00 0 0 0
267 1 2 3.9470689056614888e-01 1.2146640653534355e+01 2.0647865607019167e+00 1.2740976870462728e+01 0 0 0
268 1 2 3.9476813189783388e-01 2.5790666595293899e+01 1.8705096670026422e+00 1.2133444680060681e+01 0 0 0
269 1 2 3.6830070247736801e-01 1.0931345200633809e+01 1.7639615351991540e+00 2.9451696616178085e+00 0 0 0
270 1 2 3.8617769020363601e-01 2.4800042993923061e+01 1.7382556082715412e+00 3.0186872138375200e+00 0 0 0
271 1 2 4.2340699715032154e-01 5.4430693302049029e+00 1.0213049016296797e+01 1.2403896020381062e+01 0 0 0
272 1 2 3.9503277771950279e-01 1.9382288715700721e+01 9.8532286030950189e+00 1.2823239856490734e+01 0 0 0
273 1 2 3.9395173260581579e-01 1.0968147584107291e+01 2.3375322085183958e+00 1.6626022806266121e+01 0 0 0
274 1 2 3.8238404894358458e-01 2.4780748312107161e+01 2.2682851886110371e+00 1.7154476786389900e+01 0 0 0
275 1 2 3.5849430061936377e-01 4.9863409528918394e+00 9.6757229208637483e+00 6.7061963683429733e+00 0 0 0
276 1 2 3.6723162455220071e-01 1.9016837359235939e+01 9.5193448965972483e+00 6.5863741780235010e+00 0 0 0
277 1 2 3.7624587811257115e-01 4.2480013378905159e+00 9.9354256563162000e+00 1.6371680601370670e+01 0 0 0
278 1 2 3.6846549567184483e-01 1.7466072436762303e+01 9.3896153590272888e+00 1.6705841139013224e+01 0 0 0