ITEM: TIMESTEP
0
ITEM: NUMBER OF ATOMS
576
ITEM: BOX BOUNDS xy xz yz pp pp pp
-3.8734541101000000e+00 1.7704000473000001e+01 0.0000000000000000e+00
0.0000000000000000e+00 2.5111999511699999e+01 -3.8734541101000000e+00
0.0000000000000000e+00 1.2813326682700000e+01 0.0000000000000000e+00
ITEM: ATOMS id type xs ys zs
1 1 0.222346 0.31671 0.86756
2 1 0.777655 0.683289 0.13244
3 1 0.027653 0.566709 0.632439
4 1 0.472345 0.933289 0.36756
5 1 0.222346 0.81671 0.86756
6 1 0.777656 0.183289 0.13244
7 1 0.0276528 0.0667094 0.632439
8 1 0.472345 0.43329 0.36756
9 1 0.722345 0.316711 0.86756
10 1 0.277655 0.683289 0.13244
11 1 0.527655 0.566711 0.63244
12 1 0.972344 0.933289 0.367559
13 1 0.722345 0.816711 0.86756
14 1 0.277656 0.183289 0.13244
15 1 0.527656 0.0667109 0.63244
16 1 0.972344 0.433289 0.36756
17 1 0.157115 0.316823 0.683877
18 1 0.842885 0.683177 0.316124
19 1 0.0928849 0.566823 0.816123
20 1 0.407115 0.933177 0.183877
21 1 0.157115 0.816823 0.683877
22 1 0.842885 0.183177 0.316124
23 1 0.0928849 0.0668226 0.816123
24 1 0.407115 0.433177 0.183876
25 1 0.657115 0.316823 0.683876
26 1 0.342885 0.683177 0.316123
27 1 0.592885 0.566823 0.816124
28 1 0.907115 0.933177 0.183877
29 1 0.657115 0.816823 0.683876
30 1 0.342885 0.183177 0.316124
31 1 0.592885 0.0668226 0.816123
32 1 0.907115 0.433177 0.183876
33 1 0.275082 0.256573 0.692858
34 1 0.724918 0.743427 0.307142
35 1 0.974918 0.506574 0.807141
36 1 0.525082 0.993427 0.192858
37 1 0.275082 0.756573 0.692858
38 1 0.724918 0.243427 0.307142
39 1 0.974918 0.00657366 0.807141
40 1 0.525082 0.493427 0.192858
41 1 0.775082 0.256573 0.692858
42 1 0.224918 0.743427 0.307142
43 1 0.474918 0.506573 0.807142
44 1 0.0250817 0.993427 0.192858
45 1 0.775082 0.756573 0.692858
46 1 0.224918 0.243427 0.307142
47 1 0.474918 0.00657338 0.807142
48 1 0.0250817 0.493427 0.192858
49 1 0.296568 0.279015 0.874434
50 1 0.703432 0.720985 0.125565
51 1 0.953433 0.529015 0.625568
52 1 0.546568 0.970985 0.374435
53 1 0.296568 0.779015 0.874434
54 1 0.703432 0.220985 0.125564
55 1 0.953433 0.0290154 0.625568
56 1 0.546568 0.470985 0.374435
57 1 0.796568 0.279015 0.874435
58 1 0.203432 0.720985 0.125565
59 1 0.453432 0.529015 0.625565
60 1 0.0465678 0.970985 0.374436
61 1 0.796568 0.779015 0.874435
62 1 0.203432 0.220985 0.125564
63 1 0.453432 0.0290149 0.625564
64 1 0.0465679 0.470985 0.374436
65 1 0.33305 0.309311 0.72146
66 1 0.66695 0.690689 0.278541
67 1 0.91695 0.559311 0.77854
68 1 0.58305 0.940689 0.221459
69 1 0.33305 0.809311 0.72146
70 1 0.66695 0.190689 0.278541
71 1 0.91695 0.0593106 0.77854
72 1 0.58305 0.440689 0.22146
73 1 0.83305 0.309311 0.721459
74 1 0.16695 0.690689 0.278541
75 1 0.41695 0.559311 0.778541
76 1 0.0830501 0.940689 0.221459
77 1 0.83305 0.809311 0.721459
78 1 0.16695 0.190689 0.278541
79 1 0.41695 0.0593108 0.778541
80 1 0.08305 0.440689 0.221459
81 1 0.216118 0.36772 0.713481
82 1 0.783882 0.63228 0.286519
83 1 0.0338815 0.61772 0.786519
84 1 0.466118 0.88228 0.213481
85 1 0.216118 0.86772 0.713481
86 1 0.783882 0.13228 0.286519
87 1 0.0338815 0.11772 0.786519
88 1 0.466118 0.38228 0.213481
89 1 0.716118 0.36772 0.713481
90 1 0.283882 0.63228 0.286519
91 1 0.533882 0.61772 0.786519
92 1 0.966118 0.88228 0.213481
93 1 0.716118 0.86772 0.713481
94 1 0.283882 0.13228 0.286519
95 1 0.533882 0.11772 0.786519
96 1 0.966118 0.38228 0.213481
97 2 0.208759 0.320743 0.943252
98 2 0.791241 0.679256 0.0567483
99 2 0.0412406 0.570743 0.556748
100 2 0.458759 0.929256 0.443252
101 2 0.208759 0.820744 0.943252
102 2 0.791241 0.179256 0.0567483
103 2 0.0412406 0.0707434 0.556748
104 2 0.458759 0.429256 0.443252
105 2 0.708759 0.320744 0.943252
106 2 0.291241 0.679256 0.0567483
107 2 0.541241 0.570744 0.556748
108 2 0.958759 0.929256 0.443252
109 2 0.708759 0.820744 0.943252
110 2 0.291241 0.179256 0.0567483
111 2 0.541241 0.0707436 0.556748
112 2 0.958759 0.429256 0.443252
113 2 0.0983126 0.32779 0.629905
114 2 0.901687 0.67221 0.370095
115 2 0.151687 0.57779 0.870095
116 2 0.348313 0.92221 0.129905
117 2 0.0983126 0.82779 0.629905
118 2 0.901687 0.17221 0.370095
119 2 0.151687 0.0777903 0.870095
120 2 0.348313 0.42221 0.129905
121 2 0.598313 0.32779 0.629905
122 2 0.401687 0.67221 0.370095
123 2 0.651687 0.57779 0.870095
124 2 0.848313 0.92221 0.129905
125 2 0.598313 0.82779 0.629905
126 2 0.401687 0.17221 0.370095
127 2 0.651687 0.0777904 0.870095
128 2 0.848313 0.42221 0.129905
129 2 0.2949 0.226899 0.643679
130 2 0.7051 0.773101 0.356321
131 2 0.9551 0.476899 0.856321
132 2 0.5449 0.0231009 0.143679
133 2 0.2949 0.726899 0.643679
134 2 0.7051 0.273101 0.356321
135 2 0.9551 0.976899 0.856321
136 2 0.5449 0.523101 0.143679
137 2 0.7949 0.226899 0.643679
138 2 0.2051 0.773101 0.356321
139 2 0.4551 0.476899 0.856321
140 2 0.0448998 0.0231009 0.143679
141 2 0.7949 0.726899 0.643679
142 2 0.2051 0.273101 0.356321
143 2 0.4551 0.976899 0.856321
144 2 0.0448998 0.523101 0.143679
145 2 0.320186 0.264302 0.956128
146 2 0.679814 0.735698 0.043871
147 2 0.929814 0.514303 0.543872
148 2 0.570186 0.985698 0.456129
149 2 0.320186 0.764302 0.956128
150 2 0.679814 0.235698 0.0438709
151 2 0.929814 0.0143026 0.543872
152 2 0.570186 0.485698 0.456129
153 2 0.820186 0.264302 0.956129
154 2 0.179814 0.735698 0.0438709
155 2 0.429814 0.514302 0.543871
156 2 0.0701863 0.985698 0.456129
157 2 0.820186 0.764302 0.956129
158 2 0.179814 0.235698 0.0438708
159 2 0.429814 0.0143023 0.543871
160 2 0.0701864 0.485698 0.456129
161 2 0.385052 0.30735 0.690375
162 2 0.614948 0.69265 0.309625
163 2 0.864948 0.55735 0.809625
164 2 0.635052 0.94265 0.190375
165 2 0.385052 0.80735 0.690375
166 2 0.614948 0.19265 0.309625
167 2 0.864948 0.0573502 0.809625
168 2 0.635052 0.44265 0.190375
169 2 0.885052 0.30735 0.690375
170 2 0.114948 0.69265 0.309625
171 2 0.364948 0.55735 0.809625
172 2 0.135052 0.94265 0.190375
173 2 0.885052 0.80735 0.690375
174 2 0.114948 0.19265 0.309625
175 2 0.364948 0.0573502 0.809625
176 2 0.135052 0.44265 0.190375
177 2 0.187846 0.405737 0.679353
178 2 0.812154 0.594263 0.320647
179 2 0.0621538 0.655737 0.820647
180 2 0.437846 0.844263 0.179353
181 2 0.187846 0.905737 0.679353
182 2 0.812154 0.0942628 0.320647
183 2 0.0621538 0.155737 0.820647
184 2 0.437846 0.344263 0.179353
185 2 0.687846 0.405737 0.679353
186 2 0.312154 0.594263 0.320647
187 2 0.562154 0.655737 0.820647
188 2 0.937846 0.844263 0.179353
189 2 0.687846 0.905737 0.679353
190 2 0.312154 0.0942629 0.320647
191 2 0.562154 0.155737 0.820647
192 2 0.937846 0.344263 0.179353
193 3 0.151591 0.295409 0.786815
194 3 0.848409 0.704591 0.213184
195 3 0.0984093 0.545408 0.713185
196 3 0.401591 0.954591 0.286815
197 3 0.151591 0.795409 0.786815
198 3 0.848409 0.204591 0.213184
199 3 0.0984094 0.0454084 0.713185
200 3 0.401591 0.454591 0.286816
201 3 0.651591 0.295409 0.786816
202 3 0.348409 0.704591 0.213184
203 3 0.598409 0.545409 0.713184
204 3 0.901591 0.954591 0.286816
205 3 0.651591 0.795409 0.786816
206 3 0.348409 0.204591 0.213184
207 3 0.598409 0.0454086 0.713184
208 3 0.901591 0.454591 0.286816
209 3 0.0723448 0.304535 0.80575
210 3 0.927655 0.695465 0.19425
211 3 0.177655 0.554535 0.69425
212 3 0.322345 0.945465 0.30575
213 3 0.0723447 0.804535 0.80575
214 3 0.927655 0.195465 0.19425
215 3 0.177655 0.0545352 0.69425
216 3 0.322345 0.445465 0.30575
217 3 0.572345 0.304535 0.80575
218 3 0.427655 0.695465 0.19425
219 3 0.677655 0.554535 0.69425
220 3 0.822345 0.945465 0.30575
221 3 0.572345 0.804535 0.80575
222 3 0.427655 0.195465 0.19425
223 3 0.677655 0.0545352 0.69425
224 3 0.822344 0.445465 0.30575
225 3 0.19576 0.275661 0.635245
226 3 0.80424 0.724339 0.364755
227 3 0.0542401 0.525661 0.864755
228 3 0.44576 0.974339 0.135245
229 3 0.19576 0.775661 0.635245
230 3 0.80424 0.224339 0.364755
231 3 0.0542401 0.025661 0.864755
232 3 0.44576 0.474339 0.135245
233 3 0.69576 0.275661 0.635245
234 3 0.30424 0.724339 0.364755
235 3 0.55424 0.525661 0.864755
236 3 0.94576 0.974339 0.135245
237 3 0.69576 0.775661 0.635245
238 3 0.30424 0.224339 0.364755
239 3 0.55424 0.0256611 0.864755
240 3 0.94576 0.474339 0.135245
241 3 0.151039 0.252026 0.531288
242 3 0.848961 0.747974 0.468712
243 3 0.0989608 0.502026 0.968712
244 3 0.401039 0.997974 0.0312881
245 3 0.151039 0.752026 0.531288
246 3 0.848961 0.247974 0.468712
247 3 0.0989608 0.00202597 0.968712
248 3 0.401039 0.497974 0.031288
249 3 0.651039 0.252026 0.531288
250 3 0.348961 0.747974 0.468712
251 3 0.598961 0.502026 0.968712
252 3 0.901039 0.997974 0.0312881
253 3 0.651039 0.752026 0.531288
254 3 0.348961 0.247974 0.468712
255 3 0.598961 0.00202597 0.968712
256 3 0.901039 0.497974 0.031288
257 3 0.282985 0.233463 0.797367
258 3 0.717014 0.766537 0.202634
259 3 0.967015 0.483464 0.702632
260 3 0.532985 0.0165373 0.297367
261 3 0.282985 0.733463 0.797367
262 3 0.717014 0.266537 0.202634
263 3 0.967015 0.983464 0.702632
264 3 0.532985 0.516537 0.297367
265 3 0.782985 0.233463 0.797367
266 3 0.217014 0.766537 0.202634
267 3 0.467014 0.483463 0.702633
268 3 0.0329856 0.0165376 0.297366
269 3 0.782986 0.733463 0.797366
270 3 0.217014 0.266538 0.202634
271 3 0.467014 0.983463 0.702634
272 3 0.0329857 0.516538 0.297366
273 3 0.219924 0.19463 0.804359
274 3 0.780076 0.80537 0.195641
275 3 0.0300754 0.44463 0.695641
276 3 0.469924 0.0553698 0.304359
277 3 0.219924 0.69463 0.804359
278 3 0.780076 0.30537 0.195641
279 3 0.0300754 0.94463 0.695641
280 3 0.469924 0.55537 0.304359
281 3 0.719924 0.19463 0.804359
282 3 0.280076 0.80537 0.195641
283 3 0.530076 0.44463 0.695641
284 3 0.969924 0.0553699 0.304359
285 3 0.719924 0.69463 0.804359
286 3 0.280076 0.30537 0.195641
287 3 0.530076 0.94463 0.695641
288 3 0.969924 0.55537 0.304359
289 3 0.359804 0.305832 0.836956
290 3 0.640196 0.694168 0.163045
291 3 0.890197 0.555832 0.663044
292 3 0.609804 0.944168 0.336955
293 3 0.359804 0.805832 0.836956
294 3 0.640196 0.194168 0.163045
295 3 0.890197 0.0558318 0.663044
296 3 0.609804 0.444168 0.336955
297 3 0.859804 0.305832 0.836955
298 3 0.140196 0.694168 0.163045
299 3 0.390196 0.555832 0.663045
300 3 0.109805 0.944168 0.336955
301 3 0.859804 0.805832 0.836955
302 3 0.140195 0.194168 0.163045
303 3 0.390196 0.0558318 0.663045
304 3 0.109805 0.444168 0.336955
305 3 0.397989 0.353493 0.899472
306 3 0.602011 0.646507 0.100528
307 3 0.852011 0.603493 0.600528
308 3 0.647989 0.896507 0.399472
309 3 0.397989 0.853493 0.899472
310 3 0.602011 0.146507 0.100528
311 3 0.852011 0.103493 0.600528
312 3 0.647989 0.396507 0.399472
313 3 0.897989 0.353493 0.899472
314 3 0.102011 0.646507 0.100528
315 3 0.352011 0.603493 0.600528
316 3 0.147989 0.896507 0.399472
317 3 0.897989 0.853493 0.899472
318 3 0.102011 0.146507 0.100528
319 3 0.352011 0.103493 0.600528
320 3 0.147989 0.396507 0.399473
321 3 0.283999 0.355291 0.672157
322 3 0.716 0.644709 0.327843
323 3 0.966 0.605291 0.827843
324 3 0.533999 0.894709 0.172157
325 3 0.283999 0.855291 0.672157
326 3 0.716 0.144709 0.327843
327 3 0.966 0.105291 0.827843
328 3 0.534 0.394709 0.172157
329 3 0.784 0.355291 0.672157
330 3 0.216 0.644709 0.327843
331 3 0.466 0.605291 0.827843
332 3 0.0339994 0.894709 0.172157
333 3 0.784 0.855291 0.672157
334 3 0.216 0.144709 0.327843
335 3 0.466 0.105291 0.827843
336 3 0.0339996 0.394709 0.172157
337 3 0.327539 0.402791 0.646045
338 3 0.672461 0.597209 0.353955
339 3 0.922461 0.652791 0.853955
340 3 0.577539 0.847209 0.146045
341 3 0.327539 0.902791 0.646045
342 3 0.672461 0.0972089 0.353955
343 3 0.922461 0.152791 0.853955
344 3 0.577539 0.347209 0.146045
345 3 0.827539 0.402791 0.646045
346 3 0.172461 0.597209 0.353955
347 3 0.422461 0.652791 0.853955
348 3 0.0775391 0.847209 0.146045
349 3 0.827539 0.902791 0.646045
350 3 0.172461 0.0972089 0.353955
351 3 0.422461 0.152791 0.853955
352 3 0.0775392 0.347209 0.146045
353 3 0.241 0.370298 0.831141
354 3 0.759 0.629702 0.168858
355 3 0.00899949 0.620298 0.668859
356 3 0.491 0.879702 0.331141
357 3 0.241 0.870298 0.831141
358 3 0.759 0.129702 0.168858
359 3 0.00899948 0.120298 0.668859
360 3 0.491 0.379702 0.331141
361 3 0.741 0.370298 0.831141
362 3 0.259 0.629702 0.168859
363 3 0.509 0.620298 0.668858
364 3 0.991 0.879702 0.331141
365 3 0.741 0.870298 0.831142
366 3 0.259 0.129702 0.168858
367 3 0.509 0.120298 0.668859
368 3 0.991 0.379702 0.331142
369 3 0.207034 0.417346 0.874127
370 3 0.792966 0.582653 0.125873
371 3 0.042966 0.667346 0.625873
372 3 0.457034 0.832654 0.374127
373 3 0.207034 0.917346 0.874127
374 3 0.792966 0.0826535 0.125873
375 3 0.0429659 0.167346 0.625873
376 3 0.457034 0.332654 0.374127
377 3 0.707034 0.417347 0.874127
378 3 0.292966 0.582653 0.125873
379 3 0.542966 0.667347 0.625873
380 3 0.957034 0.832653 0.374127
381 3 0.707034 0.917347 0.874127
382 3 0.292966 0.0826535 0.125873
383 3 0.542966 0.167347 0.625873
384 3 0.957034 0.332653 0.374127
385 4 0.0102254 0.308776 0.72711
386 4 0.989775 0.691224 0.27289
387 4 0.239775 0.558776 0.77289
388 4 0.260225 0.941224 0.22711
389 4 0.0102254 0.808776 0.72711
390 4 0.989775 0.191224 0.27289
391 4 0.239775 0.0587764 0.77289
392 4 0.260225 0.441224 0.22711
393 4 0.510225 0.308776 0.72711
394 4 0.489775 0.691224 0.27289
395 4 0.739775 0.558776 0.77289
396 4 0.760225 0.941224 0.22711
397 4 0.510225 0.808776 0.72711
398 4 0.489775 0.191224 0.27289
399 4 0.739775 0.0587764 0.77289
400 4 0.760225 0.441224 0.22711
401 4 0.0662421 0.298641 0.898748
402 4 0.933758 0.701359 0.101252
403 4 0.183758 0.548641 0.601252
404 4 0.316242 0.951359 0.398748
405 4 0.0662421 0.798641 0.898748
406 4 0.933758 0.201359 0.101252
407 4 0.183758 0.0486405 0.601252
408 4 0.316242 0.451359 0.398748
409 4 0.566242 0.298641 0.898748
410 4 0.433758 0.701359 0.101252
411 4 0.683758 0.548641 0.601252
412 4 0.816242 0.951359 0.398748
413 4 0.566242 0.798641 0.898748
414 4 0.433758 0.201359 0.101252
415 4 0.683758 0.0486406 0.601252
416 4 0.816242 0.451359 0.398748
417 4 0.183431 0.214262 0.492641
418 4 0.816569 0.785738 0.507359
419 4 0.0665686 0.464262 0.00735931
420 4 0.433431 0.0357383 0.992641
421 4 0.183431 0.714262 0.492641
422 4 0.816569 0.285738 0.507359
423 4 0.0665687 0.964262 0.00735932
424 4 0.433431 0.535738 0.992641
425 4 0.683431 0.214262 0.492641
426 4 0.316569 0.785738 0.507359
427 4 0.566569 0.464262 0.0073593
428 4 0.933431 0.0357383 0.992641
429 4 0.683431 0.714262 0.492641
430 4 0.316569 0.285738 0.507359
431 4 0.566569 0.964262 0.00735928
432 4 0.933431 0.535738 0.992641
433 4 0.088523 0.275634 0.474845
434 4 0.911477 0.724366 0.525155
435 4 0.161477 0.525634 0.0251551
436 4 0.338523 0.974366 0.974845
437 4 0.088523 0.775634 0.474845
438 4 0.911477 0.224366 0.525155
439 4 0.161477 0.0256343 0.0251551
440 4 0.338523 0.474366 0.974845
441 4 0.588523 0.275634 0.474845
442 4 0.411477 0.724366 0.525155
443 4 0.661477 0.525634 0.0251551
444 4 0.838523 0.974366 0.974845
445 4 0.588523 0.775634 0.474845
446 4 0.411477 0.224366 0.525155
447 4 0.661477 0.0256343 0.0251551
448 4 0.838523 0.474366 0.974845
449 4 0.190565 0.162377 0.72759
450 4 0.809436 0.837623 0.27241
451 4 0.0594351 0.412377 0.772409
452 4 0.440565 0.0876233 0.22759
453 4 0.190565 0.662377 0.72759
454 4 0.809436 0.337623 0.27241
455 4 0.059435 0.912377 0.772409
456 4 0.440565 0.587623 0.22759
457 4 0.690565 0.162377 0.72759
458 4 0.309436 0.837623 0.27241
459 4 0.559436 0.412377 0.77241
460 4 0.940564 0.0876234 0.22759
461 4 0.690564 0.662377 0.72759
462 4 0.309436 0.337623 0.27241
463 4 0.559436 0.912377 0.77241
464 4 0.940564 0.587623 0.22759
465 4 0.202932 0.189998 0.891624
466 4 0.797069 0.810002 0.108376
467 4 0.0470683 0.439998 0.608377
468 4 0.452931 0.0600024 0.391624
469 4 0.202932 0.689998 0.891624
470 4 0.797069 0.310002 0.108376
471 4 0.0470684 0.939998 0.608377
472 4 0.452932 0.560002 0.391624
473 4 0.702931 0.189998 0.891624
474 4 0.297069 0.810002 0.108376
475 4 0.547069 0.439998 0.608376
476 4 0.952931 0.0600025 0.391624
477 4 0.702931 0.689998 0.891624
478 4 0.297069 0.310002 0.108376
479 4 0.547069 0.939998 0.608376
480 4 0.952931 0.560002 0.391624
481 4 0.42957 0.389625 0.855873
482 4 0.57043 0.610375 0.144127
483 4 0.820431 0.639625 0.644127
484 4 0.67957 0.860375 0.355873
485 4 0.42957 0.889625 0.855873
486 4 0.57043 0.110375 0.144127
487 4 0.820431 0.139624 0.644127
488 4 0.67957 0.360375 0.355873
489 4 0.92957 0.389625 0.855873
490 4 0.0704301 0.610375 0.144127
491 4 0.32043 0.639625 0.644127
492 4 0.17957 0.860375 0.355873
493 4 0.92957 0.889625 0.855873
494 4 0.0704301 0.110375 0.144127
495 4 0.32043 0.139625 0.644127
496 4 0.17957 0.360375 0.355873
497 4 0.399551 0.356775 0.996398
498 4 0.600449 0.643225 0.00360138
499 4 0.850449 0.606775 0.503602
500 4 0.649551 0.893225 0.496398
501 4 0.399551 0.856775 0.996398
502 4 0.600449 0.143225 0.00360132
503 4 0.850449 0.106775 0.503602
504 4 0.649551 0.393225 0.496398
505 4 0.899551 0.356775 0.996399
506 4 0.100449 0.643225 0.00360135
507 4 0.350449 0.606775 0.503601
508 4 0.149551 0.893225 0.496399
509 4 0.899551 0.856775 0.996399
510 4 0.100449 0.143225 0.0036013
511 4 0.350449 0.106775 0.503601
512 4 0.149551 0.393225 0.496399
513 4 0.298865 0.449873 0.645931
514 4 0.701135 0.550127 0.354069
515 4 0.951135 0.699873 0.854069
516 4 0.548865 0.800127 0.145931
517 4 0.298865 0.949873 0.645931
518 4 0.701135 0.0501267 0.354069
519 4 0.951135 0.199873 0.854069
520 4 0.548865 0.300127 0.145931
521 4 0.798865 0.449873 0.645931
522 4 0.201135 0.550127 0.354069
523 4 0.451135 0.699873 0.854069
524 4 0.048865 0.800127 0.145931
525 4 0.798865 0.949873 0.645931
526 4 0.201135 0.0501267 0.354069
527 4 0.451135 0.199873 0.854069
528 4 0.048865 0.300127 0.145931
529 4 0.388093 0.394677 0.613084
530 4 0.611907 0.605323 0.386916
531 4 0.861907 0.644677 0.886916
532 4 0.638093 0.855323 0.113084
533 4 0.388093 0.894677 0.613084
534 4 0.611907 0.105323 0.386916
535 4 0.861907 0.144677 0.886916
536 4 0.638093 0.355323 0.113084
537 4 0.888093 0.394677 0.613084
538 4 0.111907 0.605323 0.386916
539 4 0.361907 0.644677 0.886916
540 4 0.138093 0.855323 0.113084
541 4 0.888093 0.894677 0.613084
542 4 0.111907 0.105323 0.386916
543 4 0.361907 0.144677 0.886916
544 4 0.138093 0.355323 0.113084
545 4 0.196663 0.461733 0.823741
546 4 0.803337 0.538267 0.176259
547 4 0.0533366 0.711733 0.676259
548 4 0.446663 0.788267 0.323741
549 4 0.196663 0.961733 0.823741
550 4 0.803337 0.0382671 0.176259
551 4 0.0533366 0.211733 0.676259
552 4 0.446663 0.288267 0.323741
553 4 0.696663 0.461733 0.823741
554 4 0.303337 0.538267 0.176259
555 4 0.553337 0.711733 0.676259
556 4 0.946663 0.788267 0.323741
557 4 0.696663 0.961733 0.823741
558 4 0.303337 0.0382671 0.176259
559 4 0.553337 0.211733 0.676259
560 4 0.946663 0.288267 0.323741
561 4 0.197924 0.414238 0.966009
562 4 0.802076 0.585762 0.033991
563 4 0.0520761 0.664238 0.533991
564 4 0.447924 0.835762 0.466009
565 4 0.197924 0.914238 0.966009
566 4 0.802076 0.0857624 0.033991
567 4 0.0520761 0.164238 0.533991
568 4 0.447924 0.335762 0.466009
569 4 0.697924 0.414238 0.966009
570 4 0.302076 0.585762 0.033991
571 4 0.552076 0.664238 0.533991
572 4 0.947924 0.835762 0.466009
573 4 0.697924 0.914238 0.966009
574 4 0.302076 0.0857624 0.033991
575 4 0.552076 0.164238 0.533991
576 4 0.947924 0.335762 0.466009
ITEM: TIMESTEP
1000
ITEM: NUMBER OF ATOMS
576
ITEM: BOX BOUNDS xy xz yz pp pp pp
-5.9886407764506719e+00 1.8939525766161534e+01 -1.4283719947334533e-01
-1.3971545150967579e+00 2.6236223327763270e+01 -4.6102782838158802e+00
-4.2258942512085795e-01 1.3235916107820906e+01 -2.7293069903342310e-01
ITEM: ATOMS id type xs ys zs
1 1 0.241279 0.319979 0.869583
3 1 0.000371894 0.566435 0.627147
16 1 0.00368967 0.433095 0.389862
17 1 0.161769 0.307052 0.712084
19 1 0.0673396 0.567129 0.801047
21 1 0.172256 0.821588 0.690879
23 1 0.0618708 0.0643498 0.780943
42 1 0.219808 0.752497 0.239447
44 1 0.0435303 0.00155663 0.229362
48 1 0.0355412 0.477951 0.208309
58 1 0.195003 0.709844 0.0829927
60 1 0.0617832 0.970818 0.388557
62 1 0.203281 0.219381 0.110479
64 1 0.0702461 0.460799 0.379587
74 1 0.172906 0.705495 0.238097
76 1 0.0896514 0.954703 0.243156
78 1 0.197591 0.200301 0.275698
80 1 0.071558 0.424338 0.221436
81 1 0.203121 0.354225 0.711273
83 1 0.0100693 0.606356 0.782536
85 1 0.227198 0.868347 0.711794
87 1 0.019105 0.112568 0.76067
99 2 0.00743335 0.572079 0.556531
101 2 0.239958 0.823029 0.927673
112 2 0.00436616 0.434482 0.468639
113 2 0.104529 0.311159 0.676354
115 2 0.120839 0.577649 0.850444
117 2 0.117804 0.833697 0.651373
119 2 0.117743 0.0727955 0.816358
138 2 0.203409 0.784515 0.271925
140 2 0.0598696 0.0286819 0.182935
142 2 0.226778 0.282262 0.313461
144 2 0.0588421 0.501459 0.164559
154 2 0.165226 0.716522 0.00456024
156 2 0.0839325 0.980547 0.46493
158 2 0.172309 0.230901 0.0337371
160 2 0.103859 0.476031 0.450151
170 2 0.127754 0.714177 0.265416
172 2 0.135194 0.962248 0.215963
174 2 0.156937 0.206193 0.311316
176 2 0.105758 0.420607 0.176029
177 2 0.170533 0.385168 0.676417
179 2 0.0309943 0.640676 0.818811
181 2 0.195762 0.901927 0.6851
183 2 0.0491028 0.144769 0.795293
193 3 0.175116 0.291977 0.822576
195 3 0.0686526 0.551826 0.700152
197 3 0.175606 0.80331 0.787284
199 3 0.050485 0.0418796 0.672613
209 3 0.112837 0.308851 0.851777
211 3 0.133337 0.56569 0.674118
213 3 0.110951 0.816689 0.815736
215 3 0.113154 0.0517979 0.639252
225 3 0.181519 0.262705 0.661293
227 3 0.0446797 0.522545 0.845277
229 3 0.190294 0.784336 0.625238
231 3 0.0330772 0.0325449 0.841009
241 3 0.151049 0.269014 0.550444
243 3 0.0976055 0.49391 0.927071
245 3 0.133954 0.742816 0.594085
247 3 0.0713423 0.992749 0.908694
266 3 0.20616 0.761123 0.130887
268 3 0.04901 0.0201799 0.328815
270 3 0.225849 0.265013 0.174263
272 3 0.0578134 0.502716 0.309087
273 3 0.243281 0.204583 0.822232
275 3 0.0338391 0.458992 0.682381
277 3 0.224659 0.715845 0.797145
288 3 0.0072004 0.539774 0.323415
298 3 0.145338 0.688218 0.134202
300 3 0.118083 0.950034 0.354762
302 3 0.157401 0.196301 0.169895
304 3 0.10886 0.428291 0.328963
314 3 0.101457 0.646512 0.0748342
316 3 0.158008 0.905985 0.4034
318 3 0.114375 0.151741 0.119568
320 3 0.139092 0.383601 0.378659
330 3 0.216744 0.667488 0.305568
332 3 0.0472091 0.911355 0.182563
336 3 0.0178661 0.384999 0.18894
346 3 0.17649 0.621473 0.310552
348 3 0.0896815 0.86507 0.179781
350 3 0.208381 0.113314 0.321676
352 3 0.0498876 0.334976 0.194942
353 3 0.240402 0.369099 0.819891
364 3 0.00716451 0.889864 0.326315
369 3 0.202569 0.409441 0.853543
371 3 0.00746161 0.655029 0.615474
373 3 0.230948 0.91572 0.865264
375 3 0.0339073 0.151792 0.611157
385 4 0.052372 0.309113 0.784143
387 4 0.193337 0.54975 0.728972
389 4 0.0521498 0.800703 0.756099
391 4 0.173616 0.0587295 0.7059
401 4 0.118307 0.310266 0.943678
403 4 0.128095 0.596492 0.605685
405 4 0.118959 0.841331 0.89523
407 4 0.109734 0.0405831 0.550511
417 4 0.177013 0.242558 0.493215
419 4 0.0732479 0.457691 0.962428
421 4 0.151553 0.698823 0.578587
423 4 0.0362255 0.957769 0.93282
426 4 0.242622 0.736794 0.428367
433 4 0.102256 0.299566 0.516147
435 4 0.157737 0.513341 0.972134
437 4 0.0699834 0.757715 0.554054
439 4 0.134827 0.00382118 0.96464
449 4 0.196381 0.180574 0.753265
451 4 0.067479 0.430628 0.752016
453 4 0.198296 0.676871 0.745989
455 4 0.0104245 0.928191 0.755956
465 4 0.232254 0.208891 0.906114
467 4 0.0557969 0.465836 0.608726
469 4 0.207677 0.726387 0.874932
480 4 0.00313342 0.548421 0.408857
490 4 0.0472521 0.631147 0.0950219
492 4 0.214138 0.891111 0.3873
494 4 0.0687306 0.131881 0.152044
496 4 0.19635 0.364454 0.37182
506 4 0.110214 0.633326 0.993299
508 4 0.139341 0.886116 0.472214
510 4 0.125797 0.133034 0.0436734
512 4 0.118477 0.372204 0.452511
522 4 0.208645 0.580326 0.312747
524 4 0.0905868 0.831655 0.242427
526 4 0.213372 0.0784396 0.262136
528 4 0.0162671 0.295609 0.204711
538 4 0.123008 0.622142 0.341591
540 4 0.0977797 0.852775 0.0969535
542 4 0.185495 0.103582 0.393958
544 4 0.108849 0.329968 0.176992
545 4 0.210856 0.455323 0.835893
547 4 0.0499231 0.686479 0.673221
549 4 0.188449 0.946382 0.810779
551 4 0.0413456 0.197321 0.640951
561 4 0.17571 0.400313 0.922299
567 4 0.0768864 0.133694 0.569699
2 1 0.739929 0.682839 0.147985
4 1 0.487219 0.928393 0.378496
5 1 0.246613 0.820099 0.855679
6 1 0.769234 0.18054 0.125993
7 1 0.987267 0.066527 0.609889
8 1 0.500514 0.4259 0.386625
9 1 0.76268 0.325561 0.878951
10 1 0.260967 0.677561 0.100142
11 1 0.498523 0.571315 0.625412
12 1 0.996114 0.937748 0.375391
13 1 0.74738 0.815952 0.890201
14 1 0.265984 0.188159 0.109978
15 1 0.495355 0.0612786 0.632129
18 1 0.807671 0.688605 0.315709
20 1 0.425012 0.949567 0.21266
22 1 0.827444 0.194109 0.295239
24 1 0.435625 0.436638 0.218688
25 1 0.690482 0.308793 0.710678
26 1 0.324954 0.702739 0.266531
27 1 0.570529 0.560495 0.790635
28 1 0.93782 0.947168 0.206357
29 1 0.671072 0.790744 0.733014
30 1 0.344519 0.205124 0.273364
31 1 0.565463 0.0660252 0.799881
32 1 0.924465 0.437425 0.219316
33 1 0.260333 0.257294 0.693881
34 1 0.703547 0.736379 0.317193
35 1 0.976841 0.500977 0.789451
36 1 0.5433 0.984926 0.231739
37 1 0.263608 0.768487 0.678079
38 1 0.714362 0.238859 0.277379
39 1 0.956704 0.0247825 0.792354
40 1 0.546029 0.487871 0.234688
41 1 0.794063 0.258134 0.716339
43 1 0.458925 0.516854 0.789203
45 1 0.772739 0.74183 0.735803
46 1 0.24351 0.251303 0.276787
47 1 0.466488 0.0166203 0.812143
49 1 0.304536 0.291441 0.858139
50 1 0.673761 0.711709 0.14498
51 1 0.941256 0.524907 0.622432
52 1 0.565502 0.952914 0.393436
53 1 0.308457 0.789939 0.849524
54 1 0.700291 0.208217 0.117075
55 1 0.92083 0.0385618 0.620034
56 1 0.569518 0.457893 0.396346
57 1 0.827324 0.292698 0.880893
59 1 0.430003 0.542835 0.624856
61 1 0.810485 0.78278 0.898202
63 1 0.432679 0.0307931 0.638842
65 1 0.303986 0.30545 0.697604
66 1 0.655848 0.684007 0.296139
67 1 0.915728 0.543626 0.764932
68 1 0.573364 0.931149 0.238396
69 1 0.315809 0.813056 0.695665
70 1 0.676073 0.186299 0.26633
71 1 0.909669 0.0734542 0.763097
72 1 0.588161 0.438324 0.24257
73 1 0.842794 0.307934 0.723479
75 1 0.422965 0.568581 0.780587
77 1 0.812941 0.790535 0.730376
79 1 0.419205 0.0649476 0.784313
82 1 0.766656 0.640296 0.297297
84 1 0.457828 0.896092 0.215576
86 1 0.790258 0.143528 0.283253
88 1 0.481341 0.38973 0.230766
89 1 0.737702 0.354264 0.715017
90 1 0.27968 0.654861 0.267944
91 1 0.533886 0.610448 0.780316
92 1 0.985196 0.901403 0.215696
93 1 0.712527 0.839729 0.722647
94 1 0.305209 0.1559 0.273374
95 1 0.520816 0.112581 0.77479
96 1 0.963664 0.387433 0.240947
97 2 0.247976 0.329505 0.942926
98 2 0.744127 0.680046 0.0760394
100 2 0.481714 0.921218 0.449026
102 2 0.770683 0.171934 0.0540128
103 2 0.988983 0.0679998 0.530453
104 2 0.495733 0.420259 0.460239
105 2 0.763703 0.334958 0.952489
106 2 0.265409 0.66564 0.0260033
107 2 0.496631 0.577888 0.54611
108 2 0.988637 0.930113 0.447548
109 2 0.745497 0.831379 0.958195
110 2 0.26352 0.176893 0.0348908
111 2 0.49797 0.059056 0.556647
114 2 0.863017 0.681083 0.363384
116 2 0.372782 0.951796 0.162174
118 2 0.883571 0.194547 0.346435
120 2 0.379976 0.43303 0.177882
121 2 0.636179 0.315364 0.667699
122 2 0.379883 0.697342 0.315515
123 2 0.627731 0.56509 0.838252
124 2 0.885253 0.938722 0.151421
125 2 0.613708 0.792744 0.687614
126 2 0.401521 0.201685 0.313705
127 2 0.620676 0.0747912 0.846896
128 2 0.868303 0.432563 0.175582
129 2 0.270322 0.229845 0.640662
130 2 0.685922 0.763151 0.362118
131 2 0.965676 0.470748 0.827925
132 2 0.568852 0.0119018 0.197269
133 2 0.275929 0.741513 0.629775
134 2 0.695145 0.265567 0.321061
135 2 0.93928 0.00626431 0.848194
136 2 0.566161 0.516356 0.196902
137 2 0.807483 0.231072 0.665979
139 2 0.433781 0.491938 0.829326
141 2 0.791497 0.710355 0.699658
143 2 0.445947 0.991866 0.861
145 2 0.340428 0.283292 0.932416
146 2 0.642813 0.72105 0.0674634
147 2 0.920109 0.513906 0.545031
148 2 0.595473 0.959579 0.47256
149 2 0.339187 0.77512 0.922656
150 2 0.672401 0.213184 0.0374286
151 2 0.887085 0.021059 0.55172
152 2 0.597159 0.469326 0.475128
153 2 0.859964 0.286327 0.957988
155 2 0.397894 0.535016 0.546968
157 2 0.843617 0.780048 0.972214
159 2 0.40188 0.0157326 0.565199
161 2 0.342378 0.304557 0.657575
162 2 0.616202 0.683738 0.333346
163 2 0.878474 0.53577 0.80492
164 2 0.613053 0.924409 0.199981
165 2 0.350784 0.807646 0.649462
166 2 0.630708 0.188698 0.299425
167 2 0.864472 0.0773116 0.793076
168 2 0.630729 0.441737 0.209778
169 2 0.878096 0.305768 0.67572
171 2 0.386969 0.5689 0.822006
173 2 0.85557 0.78241 0.696925
175 2 0.376527 0.0666226 0.815361
178 2 0.795553 0.608527 0.335171
180 2 0.417342 0.870378 0.173687
182 2 0.829306 0.119061 0.32866
184 2 0.447934 0.359252 0.187019
185 2 0.706601 0.384432 0.672517
186 2 0.308112 0.625646 0.319579
187 2 0.570561 0.639506 0.814553
188 2 0.958038 0.868428 0.176324
189 2 0.675721 0.868241 0.686179
190 2 0.342371 0.127514 0.315126
191 2 0.553057 0.148057 0.806689
192 2 0.927181 0.357671 0.211401
194 3 0.8066 0.709082 0.213616
196 3 0.427716 0.959926 0.318702
198 3 0.832199 0.209206 0.192351
200 3 0.434352 0.449124 0.318837
201 3 0.695622 0.298733 0.820474
202 3 0.326392 0.707163 0.16063
203 3 0.562752 0.543966 0.685014
204 3 0.930866 0.959244 0.304668
205 3 0.679872 0.784035 0.837643
206 3 0.332072 0.216198 0.165775
207 3 0.563167 0.0404497 0.703901
208 3 0.938999 0.458459 0.324731
210 3 0.872198 0.699979 0.188434
212 3 0.3573 0.954372 0.334238
214 3 0.896084 0.192707 0.171837
216 3 0.368634 0.436279 0.342734
217 3 0.631023 0.317141 0.841756
218 3 0.395522 0.691094 0.148158
219 3 0.628066 0.553877 0.655975
220 3 0.862544 0.94089 0.31543
221 3 0.614456 0.799027 0.860644
222 3 0.394812 0.207582 0.131898
223 3 0.631916 0.046727 0.68176
224 3 0.873617 0.456474 0.355719
226 3 0.777504 0.724255 0.373779
228 3 0.46505 0.988057 0.179095
230 3 0.791765 0.233565 0.334841
232 3 0.471268 0.477136 0.180483
233 3 0.716395 0.264318 0.669054
234 3 0.297017 0.748553 0.30185
235 3 0.539689 0.521097 0.836845
236 3 0.968584 0.9897 0.16327
237 3 0.694378 0.745708 0.683063
238 3 0.319483 0.246143 0.327756
239 3 0.540423 0.0312786 0.864819
240 3 0.958009 0.467224 0.161922
242 3 0.824359 0.763856 0.436713
244 3 0.451324 0.986626 0.0675607
246 3 0.82093 0.25134 0.442719