LAMMPS data file via write_data, version 15 Apr 2020, timestep = 80000

576 atoms
4 atom types

-3.8450015515410385e-02 1.7742450488515054e+01 xlo xhi
-1.8116360159609730e+00 2.6923635527661521e+01 ylo yhi
-7.9565767917087626e-01 1.3608984361870917e+01 zlo zhi
1.0594503337731582e+00 -3.4786689556305372e-02 -5.4106595004950342e-01 xy xz yz

Masses

1 12.0107
2 1.00794
3 14.0067
4 15.9994

Atoms # full

1 1 1 7.9437565263899279e-02 2.4436555223102463e+00 6.2429296166540826e+00 1.1530221222845729e+01 0 0 0
3 1 1 8.7251920495454813e-02 8.4070898148154638e-01 1.4498517664585004e+01 8.2293181734317233e+00 0 0 0
16 1 1 8.4576762606521486e-02 1.0278970682163340e+00 9.9001669078646319e+00 4.8899724418054369e+00 1 0 0
17 1 1 9.7798591408987459e-02 2.0483508156205104e+00 8.0893394311440332e+00 1.0065819322409716e+01 0 0 0
19 1 1 7.6702172093071869e-02 1.6825038434795445e+00 1.4277205066781148e+01 1.0576145384301663e+01 0 0 0
21 1 1 6.2375474910192096e-02 5.7716236180362896e+00 2.1312463671572608e+01 9.6290792881404315e+00 0 0 0
23 1 1 1.0632081412789125e-01 1.6463848440050047e+01 -1.3498693684578411e+00 9.1449816405603226e+00 -1 0 0
42 1 1 1.0254943350347935e-01 3.1404683283074708e+00 1.7887049859669652e+01 2.5210312509338824e+00 0 0 0
44 1 1 7.6933851415816601e-02 1.7848962162742076e+01 2.5607118837539950e+01 1.1172473228688411e+00 -1 0 0
48 1 1 8.1437675222045952e-02 1.2730744651641102e+00 1.1329103333274055e+01 2.1504460494287905e+00 0 0 0
58 1 1 7.4482437413909530e-02 5.2660793236840995e+00 1.8541424549325029e+01 1.7577847038163887e+00 0 0 0
60 1 1 8.7034624497224100e-02 1.8010072720455305e+01 2.3879638128687191e+01 2.7308241930749282e+00 -1 0 0
62 1 1 1.0665703792229286e-01 5.1367193006364564e+00 4.5984311207868700e+00 3.0526033106625450e+00 0 0 0
64 1 1 1.0140471261807492e-01 2.0137649609610282e+00 1.1007273049201428e+01 4.4144528278192796e+00 0 0 0
74 1 1 9.3054001103385256e-02 3.4518610900831916e+00 1.7099295762564751e+01 1.1571953690499690e+00 0 0 0
76 1 1 8.5050432086246339e-02 1.6009776209597617e+00 2.5251825342756831e+01 1.3783246238558089e+00 0 0 0
78 1 1 1.0523838253764049e-01 4.5047503024018285e+00 4.4146632410713957e+00 5.3575589572718858e+00 0 0 0
80 1 1 1.0481793157559392e-01 2.4581110562055004e+00 1.0332112341033666e+01 2.1339791102419685e+00 0 0 0
81 1 1 8.7122648695446503e-02 2.2619184123473799e+00 8.6113977116950693e+00 1.1563249096053303e+01 0 0 0
83 1 1 9.8507138804227706e-02 1.0992419998506859e+00 1.5691607788664603e+01 1.0334075261855991e+01 0 0 0
85 1 1 8.4760384483674775e-02 6.0507441140218168e+00 2.2809806875548936e+01 1.0082514861862077e+01 0 0 0
87 1 1 8.1766716121466090e-02 1.6335128546074984e+01 -3.0951269936436332e-01 1.0358214662741254e+01 -1 0 0
99 1 2 2.4727359039712632e-01 1.2131710766715129e+00 1.4466584750758036e+01 7.1683345293929985e+00 0 0 0
101 1 2 2.5791970570498796e-01 4.2201489736138447e+00 2.1484248247603148e+01 1.2563993980665751e+01 0 0 0
112 1 2 2.4837399711594760e-01 1.0457213325976713e+00 9.8679052985477380e+00 5.9853434959735861e+00 1 0 0
113 1 2 2.5229816327222027e-01 1.2159961194820075e+00 8.6642240471227208e+00 9.5254205392281044e+00 0 0 0
115 1 2 2.6356515912314094e-01 2.7238537210977611e+00 1.4274218799191887e+01 1.0879496673886131e+01 0 0 0
117 1 2 2.4993133933708256e-01 5.4296592841870792e+00 2.1207078063894727e+01 8.6512123730227799e+00 0 0 0
119 1 2 2.4558940753170061e-01 1.7209154971030209e+01 -2.0883740740925902e+00 9.4465425302462016e+00 -1 0 0
138 1 2 2.8095190829270134e-01 2.0721561714647558e+00 1.8232600185505191e+01 2.4772541113858919e+00 0 0 0
140 1 2 2.5492166905313152e-01 1.7631322479505894e+01 2.6638161168867853e+01 1.2353597461124588e+00 -1 -1 0
142 1 2 2.3351232581414491e-01 4.9859607967241280e+00 6.6667747977782561e+00 5.6501749148099147e+00 0 0 0
144 1 2 2.3405172994929055e-01 1.3289262449117742e+00 1.2132171615664562e+01 1.4374185084999564e+00 0 0 0
154 1 2 2.4042846387850653e-01 5.8704124208751649e+00 1.9334987708551175e+01 1.4284811363535219e+00 0 0 0
156 1 2 2.4954868644508393e-01 1.7710279931398990e+01 2.3688443276064277e+01 3.7855263808266963e+00 -1 0 0
158 1 2 2.5105526980413029e-01 4.6913724826446410e+00 4.7155677618324141e+00 2.0197966204055828e+00 0 0 0
160 1 2 2.4850308435071494e-01 2.5328998671377705e+00 1.1435324856260500e+01 5.3360149617178250e+00 0 0 0
170 1 2 2.5935724170932251e-01 2.5614890891620967e+00 1.7137608475864873e+01 4.4006795552327738e-01 0 0 0
172 1 2 2.4410136788485959e-01 2.2356848509477354e+00 2.6187211271800145e+01 1.5610411814861052e+00 0 0 0
174 1 2 2.5700339741639933e-01 3.5633995375589849e+00 4.5047271173303010e+00 6.0000337127096461e+00 0 0 0
176 1 2 2.7881276031489360e-01 3.2152395940520204e+00 1.0518088872817616e+01 1.2373458510189166e+00 0 0 0
177 1 2 2.6708098036865907e-01 1.4380108663334319e+00 9.2663317440449777e+00 1.1754694866906162e+01 0 0 0
179 1 2 2.5195291427934757e-01 1.8488355024682599e+00 1.6371426375798066e+01 1.0840736495158515e+01 0 0 0
181 1 2 2.5091246916676230e-01 5.7585315653091795e+00 2.3471888718673078e+01 9.2690211287667825e+00 0 0 0
183 1 2 2.4564050809424640e-01 1.6961466067383697e+01 -5.3197006429323324e-01 1.1189571304267263e+01 -1 0 0
193 1 3 -2.3309541790209420e-01 1.7745893059077837e+00 6.6223294313174197e+00 1.0257393576666944e+01 0 0 0
195 1 3 -2.3467659583777251e-01 1.7965897400037549e+00 1.3654107846322672e+01 9.1152563134692279e+00 0 0 0
197 1 3 -1.9535254235422744e-01 4.8311025292347427e+00 2.0645319075464442e+01 1.0627796068927962e+01 0 0 0
199 1 3 -2.2244399944276788e-01 1.6847944629811767e+01 -5.3853786108673751e-01 7.9313676231564632e+00 -1 0 0
209 1 3 4.9273616417978444e-01 3.3196356993440640e-01 6.2208761588869610e+00 1.0161069707484353e+01 0 0 0
211 1 3 4.4801210342875658e-01 3.2178989557608939e+00 1.3683238975139712e+01 8.6239639107044130e+00 0 0 0
213 1 3 3.8614558764463430e-01 3.4102070793204935e+00 2.0742252554692463e+01 1.0124003306015068e+01 0 0 0
215 1 3 4.0946882196595352e-01 5.4857620272999763e-01 -6.1247461958017180e-01 7.5470890362072627e+00 0 0 0
225 1 3 -2.2438863612921744e-01 3.2450719062028437e+00 8.3027294189022811e+00 9.1491630106616366e+00 0 0 0
227 1 3 -2.2962517431283813e-01 7.9472852353439205e-01 1.3453063565080944e+01 1.1437661172982599e+01 0 0 0
229 1 3 -2.3383790417221256e-01 7.0625207829157493e+00 2.0497134646754517e+01 9.4545299887337553e+00 0 0 0
231 1 3 -2.5601317959957171e-01 1.5154245476743766e+01 -2.1223312513279065e+00 9.0392094176435513e+00 -1 0 0
241 1 3 4.5374469369405157e-01 3.4257472192702032e+00 9.7461988796217227e+00 8.6507718321664360e+00 0 0 0
243 1 3 4.6178966466760984e-01 1.4380267424221778e+00 1.2099047024842637e+01 1.1793312265756063e+01 0 0 0
245 1 3 4.7053117668147015e-01 6.7472791952161932e+00 1.9103892763945822e+01 8.9211948559441421e+00 0 0 0
247 1 3 4.3983240271877111e-01 1.6348335383560357e+01 2.5491811956848295e+01 7.9911913795522960e+00 -1 -1 0
266 1 3 -1.7923092382085851e-01 4.0281804980358000e+00 1.9100161774185871e+01 2.4888265217095742e+00 0 0 0
268 1 3 -2.2299620851609459e-01 1.7112806275940688e+01 2.5045077927458181e+01 2.2841800111087487e+00 -1 -1 0
270 1 3 -2.0731278247997392e-01 5.2810253144219734e+00 6.0088367927410982e+00 3.6503314433337888e+00 0 0 0
272 1 3 -2.4564257513348065e-01 1.4441159023073682e+00 1.2065625061708253e+01 3.4968442845128047e+00 0 0 0
273 1 3 4.7181460477661430e-01 3.7075210306733957e+00 5.4886155844850428e+00 9.0159427663500029e+00 0 0 0
275 1 3 4.9404336249271952e-01 1.8069346473016637e+01 1.1621700325915684e+01 9.1464047626899045e+00 -1 0 0
277 1 3 4.7032192939366740e-01 7.7757476894586226e+00 1.9104648353795135e+01 1.2800953560230953e+01 0 0 0
288 1 3 4.9524900922059406e-01 1.7966075085677595e+01 1.2761869073445805e+01 3.9828167105388532e+00 0 0 0
298 1 3 -2.1016839533123263e-01 4.6536534576643183e+00 1.7768696403719311e+01 5.9035713403681056e-01 0 0 0
300 1 3 -2.0358376907242803e-01 1.6159022475520739e+00 2.4367277198472124e+01 2.7029227963255273e+00 0 0 0
302 1 3 -2.2895204280788659e-01 4.0660465190779238e+00 4.0677261739118826e+00 3.9691737907166118e+00 0 0 0
304 1 3 -2.2188636468535960e-01 3.1663983282759371e+00 1.0456863172086342e+01 3.5128001856273761e+00 0 0 0
314 1 3 4.5433153487840439e-01 4.2863985446729664e+00 1.8726225182570644e+01 -5.1560021296789293e-01 0 0 0
316 1 3 3.7633242093829833e-01 1.8048694068991895e+00 2.5325221064744547e+01 3.8728257687892063e+00 0 0 0
318 1 3 4.4359474493981949e-01 3.5326042169846716e+00 2.6758324995983642e+00 3.6525180846235958e+00 0 0 0
320 1 3 4.5527322028926526e-01 4.1805159751986114e+00 1.1562931369737322e+01 3.3660648399963833e+00 0 0 0
330 1 3 -2.2046087677227982e-01 3.7180184726172629e+00 1.5639635179579928e+01 1.5089863766688651e+00 0 0 0
332 1 3 -2.1884349803422787e-01 2.2078623011991012e+00 2.4576377780848574e+01 2.3996297095579311e-01 0 0 0
336 1 3 -1.9642155590799978e-01 1.9889487946233251e+00 8.8994215817129199e+00 1.8368001467525792e+00 0 0 0
346 1 3 4.3831756185557724e-01 4.0105438120602219e+00 1.4842613255526290e+01 2.5528246990773140e-01 0 0 0
348 1 3 4.9088263767980478e-01 3.6418675470495310e+00 2.4103693831657580e+01 5.5162752395914882e-01 0 0 0
350 1 3 4.3591936346921001e-01 4.6536369642369317e+00 2.0441545892035347e+00 6.4334321361636375e+00 0 0 0
352 1 3 4.4519460641850411e-01 3.1828373287846823e+00 7.9756460042849397e+00 1.8419088856699468e+00 0 0 0
353 1 3 -2.2351977849474824e-01 2.1127797555216472e+00 7.4731094081867333e+00 1.2520680106974678e+01 0 0 0
364 1 3 -2.3804166475634259e-01 1.3675608609580459e+00 2.2262180808578066e+01 1.0957427723631106e+00 1 0 0
369 1 3 4.4441290593260346e-01 7.3559114784484825e-01 7.4624577628677180e+00 1.3111341528340301e+01 0 0 0
371 1 3 4.0565620026150412e-01 2.1245323355296617e+00 1.6731329216048174e+01 8.2341219876949978e+00 0 0 0
373 1 3 4.1773172767345373e-01 3.8215549935214894e+00 2.3637940246199236e+01 1.0922585842882016e+01 0 0 0
375 1 3 4.2021875958535543e-01 2.6768276578939110e-01 1.6713904657823302e+00 9.9913558850255129e+00 0 0 0
385 1 4 -3.5344139869674734e-01 1.7370981065835956e+01 6.9793370882895402e+00 9.4064006922701058e+00 -1 0 0
387 1 4 -2.8367599779624475e-01 4.1719065036350669e+00 1.4118567323972323e+01 9.3954297470565251e+00 0 0 0
389 1 4 -2.0793836576650865e-01 3.1750279097868237e+00 2.0585335759669441e+01 8.8374131556876456e+00 0 0 0
391 1 4 -2.1481446997916265e-01 1.2867205185214243e+00 -1.4713738241594041e+00 8.1885096900988881e+00 0 0 0
401 1 4 -2.9371183337748241e-01 1.7660760124534551e+01 5.1608817776376075e+00 1.0703321618565905e+01 -1 0 0
403 1 4 -2.6346940584149786e-01 3.3931031561359308e+00 1.3425137247530140e+01 7.3551168110530174e+00 0 0 0
405 1 4 -2.3986170446313829e-01 2.4871739255485630e+00 2.0621480750720998e+01 1.1016865704590431e+01 0 0 0
407 1 4 -1.8936689643789983e-01 9.8391983883321543e-01 2.2773353367665505e-02 6.5108250803045999e+00 0 0 0
417 1 4 -3.3003876580597802e-01 3.0766040774948684e+00 1.0002909949368636e+01 7.4418791769914918e+00 0 0 0
419 1 4 -3.1230928568297939e-01 2.6345439355999476e+00 1.1872084363776027e+01 1.1401008725281354e+01 0 0 0
421 1 4 -3.5768986881378645e-01 7.4904373431464046e+00 1.8113826116691456e+01 9.3117504726511360e+00 0 0 0
423 1 4 -3.1700954985240715e-01 1.5448827767899823e+01 2.4577737833621541e+01 7.9223683183180995e+00 -1 0 0
426 1 4 -4.0532891617074446e-01 1.5441874148287025e+00 1.5650492197357464e+01 2.6942313099979112e+00 0 0 0
433 1 4 -2.8886175316690765e-01 4.2105064326245563e+00 1.0441281574241213e+01 9.3972351207061564e+00 0 0 0
435 1 4 -2.9010709302781712e-01 7.8395724108874032e-01 1.1254256345672625e+01 1.2504489095793794e+01 0 0 -1
437 1 4 -2.4911152044988893e-01 5.6828598110427953e+00 1.8914986401353154e+01 8.2176195316661680e+00 0 0 0
439 1 4 -2.4261969399987587e-01 1.7521803532375394e+01 2.5339230672734956e+01 7.4417047775241159e+00 -1 -1 -1
449 1 4 -3.5864761134762790e-01 3.5578533994140402e+00 5.9818649161257573e+00 7.8132555900174374e+00 0 0 0
451 1 4 -3.8992232976942881e-01 4.3984402701903919e-01 1.0608356557674304e+01 9.9578929533410463e+00 0 0 0
453 1 4 -2.9607760892650586e-01 8.7427717070356827e+00 1.8453698153791507e+01 1.2212883034630480e+01 0 0 0
455 1 4 -2.3618646827676743e-01 1.5302426377820257e+01 2.6628954496505713e+01 5.9098570673219548e+00 -1 0 0
465 1 4 -2.6048279579938916e-01 2.9196069532337807e+00 4.5448337543223829e+00 9.4495007729741740e+00 0 0 0
467 1 4 -3.5271928891440185e-01 9.1679618000484919e-01 1.1658699776532082e+01 7.9975888419896179e+00 0 0 0
469 1 4 -3.4922358200469633e-01 7.4165431958790418e+00 1.9384090857376265e+01 -4.0598389261041146e-01 0 0 1
480 1 4 -3.4053669825409516e-01 1.7551862691699359e+01 1.2653016804880311e+01 5.2256121737533050e+00 0 0 0
490 1 4 -3.7519769357158772e-01 4.4129102245805427e+00 1.9999166649457734e+01 -2.7218381229255517e-01 0 0 0
492 1 4 -1.5919087414807759e-01 2.4760906095950346e+00 2.4932537140846385e+01 4.8868078808690072e+00 0 0 0
494 1 4 -2.2460338779154698e-01 2.4302326235850216e+00 2.3030769273702010e+00 4.2492246950171380e+00 0 0 0
496 1 4 -2.8540244738160314e-01 5.2242729699686246e+00 1.1271510236436946e+01 2.6551440638737205e+00 0 0 0
506 1 4 -2.5264849631453079e-01 3.7403937093921247e+00 1.7760302472141440e+01 1.2764754714533360e+01 0 0 -1
508 1 4 -2.4794540832226444e-01 1.0784100474226779e+00 2.6399623347523587e+01 3.9561946984420668e+00 0 0 0
510 1 4 -2.7302137580846686e-01 3.9603704730920692e+00 1.9867932418855316e+00 2.6578458140169428e+00 0 0 0
512 1 4 -3.6023973540269882e-01 3.8725118539805878e+00 1.2775302880716310e+01 3.6415850448045157e+00 0 0 0
522 1 4 -2.9732063438088979e-01 3.2240321821120710e+00 1.4991657987821364e+01 -7.8919858887381755e-01 0 0 0
524 1 4 -3.7625933649371940e-01 4.2406289512841981e+00 2.3388077311324516e+01 -3.4064528572924374e-01 0 0 0
526 1 4 -2.8627274840180394e-01 5.2164385628309651e+00 9.2128220707783726e-01 6.1952904438148817e+00 0 0 0
528 1 4 -2.8313351441263795e-01 4.1761673707158895e+00 8.2574123404277024e+00 1.0799727816958962e+00 0 0 0
538 1 4 -2.3674457999492507e-01 4.9518388206772785e+00 1.3949213461804685e+01 2.2393264166048543e-01 0 0 0
540 1 4 -2.7779755830510006e-01 4.2575765888738202e+00 2.4558276845143304e+01 1.5794433054559214e+00 0 0 0
542 1 4 -1.9256839181253818e-01 3.6039108710479391e+00 2.1410109483401278e+00 7.2252018397851376e+00 0 0 0
544 1 4 -3.2207873398628439e-01 3.3160151330995249e+00 7.0789855784197258e+00 2.7792292048200729e+00 0 0 0
545 1 4 -3.1860103520404803e-01 1.7516548986770296e+01 7.8901837349434718e+00 1.2420611115116824e+01 -1 0 0
547 1 4 -1.8799455124353559e-01 1.9388332568823212e+00 1.7342208879558960e+01 7.0916424994989287e+00 0 0 0
549 1 4 -2.5724038513648745e-01 3.7758948043410760e+00 2.4305874415938163e+01 9.7996328340860632e+00 0 0 0
551 1 4 -2.1192913999501753e-01 4.8646190700913183e-01 2.7848893364444747e+00 9.4076707057255078e+00 0 0 0
561 1 4 -2.8280956756768422e-01 6.1913688662053834e-01 7.5905827905052607e+00 -5.9384945383368692e-02 0 0 1
567 1 4 -2.4624805741814121e-01 1.1866415184862520e+00 9.3905215463616853e-01 1.0567195535462647e+01 0 0 0
2 1 1 8.2067927517736672e-02 1.4704356671028089e+01 1.7467409714253520e+01 7.3421512639816910e-01 0 0 0
4 1 1 9.8230178224764403e-02 9.7843059379893802e+00 2.3998174067135366e+01 5.2074892675584792e+00 0 0 0
5 1 1 8.3249841903654920e-02 5.0197772970115722e+00 2.1592474562123726e+01 1.1814249977215573e+01 0 0 0
6 1 1 8.2337639384279265e-02 1.6257209315880708e+01 3.5046906108440714e+00 4.1861560949927212e-01 0 0 0
7 1 1 7.6421772804333210e-02 1.6397332977483618e+01 8.5773486642974062e-01 8.2543466649720738e+00 -1 0 0
8 1 1 7.8215960187364916e-02 1.0878150217260449e+01 1.0865681689591771e+01 3.2126245302864396e+00 0 0 0
9 1 1 6.1688878771537357e-02 1.2985962947429792e+01 6.7621950592500060e+00 1.0552408246492726e+01 0 0 0
10 1 1 7.4363885587286752e-02 6.2062664630152815e+00 1.7606726631415853e+01 2.6191808075045162e+00 0 0 0
11 1 1 8.6167286417542358e-02 9.1402860291483599e+00 1.5455057560273906e+01 9.0757581985669926e+00 0 0 0
12 1 1 8.8792818226328285e-02 1.7865788397803609e+01 2.2578209667842387e+01 1.8097135352971421e+00 0 0 0
13 1 1 1.1016198628754949e-01 1.3446789111412865e+01 2.2281303549261686e+01 8.8769360162429400e+00 0 0 0
14 1 1 7.9800378896298693e-02 6.4709422401325876e+00 3.7639804420440131e+00 3.0153628366193996e+00 0 0 0
15 1 1 9.8708946873322545e-02 6.6860864253747820e+00 -5.9221837098863173e-01 1.0629252556696526e+01 0 0 0
18 1 1 8.3202552052037748e-02 1.6472315912124394e+01 1.6780003601417548e+01 2.1117263690416102e+00 0 0 0
20 1 1 1.0500942323752113e-01 8.1587634479537972e+00 2.4872946563414246e+01 3.6700134076278639e+00 0 0 0
22 1 1 5.3916564127979585e-02 1.6595347757434226e+01 3.8206147973890987e+00 2.7636198683907485e+00 0 0 0
24 1 1 8.9919948037106553e-02 8.6314465252839803e+00 1.0213735114554909e+01 2.5671259409678999e+00 0 0 0
25 1 1 9.4887141896710131e-02 1.2512679254194463e+01 6.3487439373997283e+00 8.2521793323525596e+00 0 0 0
26 1 1 6.9909660481680111e-02 4.5744530533631655e+00 1.6396073846398245e+01 3.8457037456000878e+00 0 0 0
27 1 1 8.5402111404132480e-02 1.0675033427428380e+01 1.3643636644906833e+01 9.6886556084775179e+00 0 0 0
28 1 1 9.3712241723970080e-02 1.7661494009886379e+01 2.3657469677353717e+01 -3.4249021037410193e-01 0 0 0
29 1 1 9.4274333994288154e-02 1.3546708797429019e+01 2.0086866759562483e+01 7.9564157053872258e+00 0 0 0
30 1 1 9.2091986190933339e-02 7.4845718576640614e+00 4.4066326372055578e+00 5.0657831023179059e+00 0 0 0
31 1 1 9.3949500404689468e-02 8.6147882891873415e+00 -5.1770588549249430e-01 1.2176904944960798e+01 0 0 0
32 1 1 9.9341109134282929e-02 1.7583287867391000e+01 9.5005011468663554e+00 2.9724551504696857e+00 0 0 0
33 1 1 1.0065174329823445e-01 4.5351976898030602e+00 7.7483852049533599e+00 9.7738030688658561e+00 0 0 0
34 1 1 1.0525451890096885e-01 1.4727868894820912e+01 1.7354060713326376e+01 3.7538594168284316e+00 0 0 0
35 1 1 1.1239918897790066e-01 1.7206008764010562e+01 1.3352354453323073e+01 1.0763422131179686e+01 0 0 0
36 1 1 8.5511743865110540e-02 7.2823176661488311e+00 -1.8873913795899566e+00 5.1701718939733130e+00 0 1 0
37 1 1 1.2145994214411988e-01 7.7814632990822163e+00 2.0539905776509556e+01 1.0779676803024344e+01 0 0 0
38 1 1 9.6976548296001872e-02 1.4202697949081166e+01 4.2229703269705929e+00 2.6368782480997530e+00 0 0 0
39 1 1 1.0773553864568550e-01 1.4074078794946223e+01 -1.1248473174754621e+00 8.7548001867539202e+00 0 0 0
40 1 1 1.0761331584536316e-01 9.9820947620982423e+00 9.7184950671667494e+00 5.2092579733389388e-01 0 0 0
41 1 1 9.0035056037347599e-02 1.4911782330908251e+01 6.8758038649417585e+00 8.0916970383796496e+00 0 0 0
43 1 1 7.8852501943929829e-02 8.7253248599400361e+00 1.3191886840159883e+01 1.1105587102347032e+01 0 0 0
45 1 1 8.3925000244743808e-02 1.5560007930650531e+01 1.9997855980174137e+01 9.3742598246056215e+00 0 0 0
46 1 1 9.4865862704459541e-02 5.3221073528831182e+00 5.7576788103101801e+00 5.0962602374082788e+00 0 0 0
47 1 1 8.8447245265135560e-02 6.7888788538522959e+00 -4.9539705517050581e-01 -6.6208389192755024e-01 0 0 1
49 1 1 7.2174593964546438e-02 3.9746589167042985e+00 6.1077934738380018e+00 1.1448487078624053e+01 0 0 0
50 1 1 8.1351612352684205e-02 1.3591477480213936e+01 1.7851009950882791e+01 1.7595248314979495e+00 0 0 0
51 1 1 9.4337040465356778e-02 1.7182508280151421e+01 1.3933925290213166e+01 8.4067111581243559e+00 0 0 0
52 1 1 1.1753966065754770e-01 9.9022805731877934e+00 2.5274903719976464e+01 6.1942399104406984e+00 0 0 0
53 1 1 1.1456335811255373e-01 6.3411285914582267e+00 2.1124389265162911e+01 1.2576468171807296e+01 0 0 0
54 1 1 1.0448433808185352e-01 1.4677098540173631e+01 3.7721365411455725e+00 3.5299379367235617e-01 0 0 0
55 1 1 1.0572947941087736e-01 1.4832933988876725e+01 1.0134464390071702e+00 8.0095339170354496e+00 0 0 0
56 1 1 9.6425722271305581e-02 1.1671416772755032e+01 1.0606447913593010e+01 1.8961308339426437e+00 0 0 0
57 1 1 8.1445425139747799e-02 1.4471093456992488e+01 7.1491090879134269e+00 1.0435918249386573e+01 0 0 0
59 1 1 9.5256305824906129e-02 7.8735185779197918e+00 1.5093461731142350e+01 9.9701106458757316e+00 0 0 0
61 1 1 7.5892939187932273e-02 1.4779950662259976e+01 2.2151731038366719e+01 9.8212038338613485e+00 0 0 0
63 1 1 1.1494712505289240e-01 5.5535724841892717e+00 -9.5801003247430350e-01 1.1671013713589668e+01 0 0 0
65 1 1 8.7133195397085375e-02 4.6868386514216880e+00 8.4141520197286805e+00 1.1203119840051604e+01 0 0 0
66 1 1 6.1334170301831234e-02 1.3856192711106880e+01 1.6107379940498333e+01 3.3323045571791710e+00 0 0 0
67 1 1 8.5587837326079122e-02 1.6560682658266760e+01 1.4762239896003043e+01 1.0513517331543760e+01 0 0 0
68 1 1 9.6785996158473983e-02 8.7681447929649874e+00 -1.6475157509335463e+00 4.5795513615791927e+00 0 1 0
69 1 1 9.6849306749172775e-02 8.0557900691289550e+00 2.2067544645378909e+01 1.1302772381430350e+01 0 0 0
70 1 1 8.1880641098283247e-02 1.3947251142321322e+01 2.7162153171570083e+00 2.3591749579073622e+00 0 0 0
71 1 1 8.7096181614562590e-02 1.3917946548309811e+01 -2.6297998302161840e-02 9.8764685841253659e+00 0 0 0
72 1 1 1.0081625117256114e-01 1.0712542432840120e+01 8.4997044852263333e+00 1.3143969954948780e+00 0 0 0
73 1 1 1.0611173361729333e-01 1.4574088555825480e+01 8.4038616075388131e+00 8.4332687831669997e+00 0 0 0
75 1 1 8.2291702926788876e-02 8.9615608860979048e+00 1.4392514520884669e+01 1.1992375022507801e+01 0 0 0
77 1 1 8.1628777009781023e-02 1.6261143168768974e+01 2.0966881863024717e+01 8.3530976790431346e+00 0 0 0
79 1 1 1.0683892021365674e-01 6.1084297326672958e+00 3.9405875950837910e-01 1.3570415862395931e+01 0 0 0
82 1 1 1.0606105253637071e-01 1.5593238594065507e+01 1.5470695628591903e+01 1.7216153288989307e+00 0 0 0
84 1 1 7.5218159059883410e-02 9.5897509012136002e+00 2.5156418943967978e+01 3.1127587342882750e+00 0 0 0
86 1 1 7.1159069793278990e-02 1.6313657267213223e+01 2.3272307298356258e+00 2.4787618746938431e+00 0 0 0
88 1 1 1.0458300055993239e-01 9.4459526076023952e+00 9.0376898710891513e+00 3.3026927104289436e+00 0 0 0
89 1 1 8.9981436401967679e-02 1.2176330986382586e+01 7.8783864051936412e+00 8.6310832060168696e+00 0 0 0
90 1 1 7.0484318850870406e-02 4.8685338404688361e+00 1.5593616180224396e+01 2.5316006776742688e+00 0 0 0
91 1 1 7.9292870685600397e-02 1.0931118716768786e+01 1.4942024653650899e+01 1.0558853885482787e+01 0 0 0
92 1 1 6.7400550457813943e-02 1.3484018738517360e+00 2.3324169109755857e+01 -4.1908427886779731e-02 1 0 0
93 1 1 8.4602478416098678e-02 1.4248450784564664e+01 2.1106070753817384e+01 6.9323490449022644e+00 0 0 0
94 1 1 9.9722826765864900e-02 6.6075523631213500e+00 3.1062386586205966e+00 5.2732291200172785e+00 0 0 0
95 1 1 8.8528686974172516e-02 7.9763729359219750e+00 9.5255376873596198e-01 1.1998415349505219e+01 0 0 0
96 1 1 1.0323668809819682e-01 1.0101406066238019e+00 8.4719813081918058e+00 2.9399260960957312e+00 1 0 0
97 1 2 2.4555800867670788e-01 2.0357555337239930e+00 5.2700105489729534e+00 1.1854441703008472e+01 0 0 0
98 1 2 2.5184706324903461e-01 1.4468923206334502e+01 1.7910477594066720e+01 -2.4871748833751095e-01 0 0 0
100 1 2 2.5697155244152947e-01 1.0117891899191319e+01 2.3059979531600852e+01 5.6902536616264445e+00 0 0 0
102 1 2 2.5459552721520717e-01 1.6724140018714657e+01 3.6402494080548067e+00 -5.8689561379615607e-01 0 0 0
103 1 2 2.4683443875334790e-01 1.6891849748569129e+01 1.6058948866040410e+00 7.6270431788168835e+00 -1 0 0
104 1 2 2.4731014502229187e-01 1.1496000850511823e+01 1.1532463324487891e+01 3.7779695677029697e+00 0 0 0
105 1 2 2.2701345588084507e-01 1.2817232893231388e+01 6.5309404787365679e+00 1.1696568584512800e+01 0 0 0
106 1 2 2.4935685610902858e-01 7.2788875623788130e+00 1.7928888866010411e+01 2.6162860975569759e+00 0 0 0
107 1 2 2.5184118365247488e-01 8.8571779253259972e+00 1.6188975735969414e+01 8.2778934235718005e+00 0 0 0
108 1 2 2.3243317820696996e-01 1.7448703671512980e+01 2.1690332802642779e+01 2.3474113142893200e+00 0 0 0
109 1 2 2.2120284957256123e-01 1.2943399752282133e+01 2.3234877642068867e+01 9.2358793169307702e+00 0 0 0
110 1 2 2.3576013869503659e-01 6.7794595127047339e+00 3.5156919606255528e+00 1.9503405495311030e+00 0 0 0
111 1 2 2.5965418077487840e-01 6.3593813146530627e+00 -8.7905022382040043e-01 9.5624011379773570e+00 0 0 0
114 1 2 2.4745977564957899e-01 1.7515089247303159e+01 1.6557054372641268e+01 2.1565501494795907e+00 0 0 0
116 1 2 2.6141532820278574e-01 7.4293699809752152e+00 2.4429366157656553e+01 2.8737040016729813e+00 0 0 0
118 1 2 2.5588845812024030e-01 1.7415358744597324e+01 3.9581275607112856e+00 3.4265719542525375e+00 0 0 0
120 1 2 2.5520929621763266e-01 7.5576719476868144e+00 1.0315293962217162e+01 2.8306201315970045e+00 0 0 0
121 1 2 2.4503670606917685e-01 1.1663772571217049e+01 5.8860322203408133e+00 7.6997817298857250e+00 0 0 0
122 1 2 2.5105880962942112e-01 4.6565379805053686e+00 1.5841639041613460e+01 4.7528895828440465e+00 0 0 0
123 1 2 2.5542211482635285e-01 1.1645509163143650e+01 1.3268291109514484e+01 9.3327691948195568e+00 0 0 0
124 1 2 2.4263663026733354e-01 1.7388427831107023e+01 2.2642573720271812e+01 1.3075318527649129e+01 0 0 -1
125 1 2 2.6783223477160284e-01 1.2837293549126404e+01 1.9500185931880559e+01 7.3879402669030654e+00 0 0 0
126 1 2 2.4134214828320488e-01 8.4696740382795817e+00 4.3060781671396553e+00 5.5285657207219918e+00 0 0 0
127 1 2 2.3713013984399736e-01 9.7050828969644378e+00 -3.9283658753345629e-01 1.2078509375590889e+01 0 0 0
128 1 2 2.6579411903476702e-01 1.6603073777114947e+01 8.9953552373252528e+00 2.7914035400641386e+00 0 0 0
129 1 2 2.5635680783823045e-01 5.3443183495634656e+00 8.0538085062361091e+00 9.1043914534653574e+00 0 0 0
130 1 2 2.6419362760511700e-01 1.4547512384288957e+01 1.7458740762926737e+01 4.8526407621009859e+00 0 0 0
131 1 2 2.7546165134202438e-01 1.6593634924651951e+01 1.2808090141307483e+01 1.1612103890160585e+01 0 0 0
132 1 2 2.4695979567133627e-01 6.8616859741696894e+00 -9.7674196706477567e-01 5.4612110821012223e+00 0 0 0
133 1 2 2.5580927739657427e-01 8.7179455553971170e+00 1.9949256432165051e+01 1.0678717606787998e+01 0 0 0
134 1 2 2.7887082742178515e-01 1.3428252744269024e+01 4.7438544039083315e+00 3.1818201509657573e+00 0 0 0
135 1 2 2.3855989489989640e-01 1.3060794306325723e+01 -1.6611235856747055e+00 8.6155381724786722e+00 0 1 0
136 1 2 2.5572521601909365e-01 9.8714742892962839e+00 9.4227515301307587e+00 -4.9796428842812940e-01 0 0 0
137 1 2 2.6121983076567479e-01 1.5813758655009094e+01 6.6991641302138625e+00 7.4450501689509103e+00 0 0 0
139 1 2 2.4791224876193252e-01 8.2883122498732380e+00 1.2352690422968292e+01 1.1731862221347365e+01 0 0 0
141 1 2 2.7343733184748598e-01 1.6241911265054231e+01 1.9319520004624046e+01 9.8433987248041390e+00 0 0 0
143 1 2 2.6065858627795635e-01 6.6271392326937359e+00 -9.4478378161201038e-01 2.8107720458444052e-01 0 1 1
145 1 2 2.4356833839330813e-01 4.2592818515757864e+00 5.1890872706911511e+00 1.1877579618470465e+01 0 0 0
146 1 2 2.4993161258874741e-01 1.2774107372966430e+01 1.8420197418236647e+01 1.3121094017919117e+00 0 0 0
147 1 2 2.4988608222907777e-01 1.6769263140595225e+01 1.3506921264004360e+01 7.4322719298658537e+00 0 0 0
148 1 2 2.8158703305575056e-01 1.0457926839296546e+01 2.4999161764904017e+01 7.1212653529400187e+00 0 0 0
149 1 2 2.4396391819979849e-01 6.1272627979149696e+00 2.1462110320702827e+01 -7.6324388411427091e-01 0 0 1
150 1 2 2.2810765666959387e-01 1.4451765716843083e+01 4.0469459103478815e+00 -7.0338286879510248e-01 0 0 0
151 1 2 2.5524479514825266e-01 1.4469944478865690e+01 1.6646668040482764e+00 7.1268924082168272e+00 0 0 0
152 1 2 2.5524863952656812e-01 1.2596690319861336e+01 1.1290828963166746e+01 1.9720218192589249e+00 0 0 0
153 1 2 2.2886623133972567e-01 1.4837779886529358e+01 7.1034013772327089e+00 1.1445392180269314e+01 0 0 0
155 1 2 2.5832249688114278e-01 6.9860810089589105e+00 1.5644773073631809e+01 9.5943450165845494e+00 0 0 0
157 1 2 2.2816696843053158e-01 1.4737721048461450e+01 2.2917990106299712e+01 1.0640309335018241e+01 0 0 0
159 1 2 2.4325753469053185e-01 4.7421663876598661e+00 -1.4406651287665935e+00 1.1069851545402347e+01 0 0 0
161 1 2 2.4748348247075003e-01 5.6651824501732913e+00 8.9833003690488109e+00 1.1272895606659198e+01 0 0 0
162 1 2 2.3670566441850602e-01 1.3260979244943885e+01 1.5566853412558741e+01 4.1285317466660194e+00 0 0 0
163 1 2 2.8449955385222803e-01 1.5589664492768511e+01 1.4870569911021422e+01 1.0992650085138351e+01 0 0 0
164 1 2 2.7663468466840552e-01 9.0953530323784051e+00 -5.5807629117711999e-01 4.5953349431037598e+00 0 1 0
165 1 2 2.5004702134708684e-01 9.1579984686083975e+00 2.2293052890889939e+01 1.1416122992195463e+01 0 0 0
166 1 2 2.3612912406252229e-01 1.3009816619851412e+01 2.4586662267974875e+00 2.9241001713873471e+00 0 0 0
167 1 2 2.3789750516239727e-01 1.2901676386586594e+01 -1.1830955207195393e-01 1.0291200168534630e+01 0 0 0
168 1 2 2.5199978883007068e-01 1.0967884873787879e+01 7.6598750604512631e+00 6.1554889018440284e-01 0 0 0
169 1 2 2.6917936525147024e-01 1.5282196262725831e+01 9.1080219812438550e+00 7.9600803488634018e+00 0 0 0
171 1 2 2.5607477855289373e-01 8.6247689258483256e+00 1.4130724645218557e+01 1.2995491120476927e+01 0 0 0
173 1 2 2.5767292895515725e-01 1.7382073947430960e+01 2.0809732755092185e+01 8.3394976201420636e+00 0 0 0
175 1 2 2.2984703946449933e-01 5.6146303284772809e+00 1.2434340021577777e+00 1.0818187400581392e-01 0 0 1
178 1 2 2.5454391395299408e-01 1.6286855827860343e+01 1.4616442238218154e+01 1.3776593355435027e+00 0 0 0
180 1 2 2.6394233434512748e-01 9.7606792668466653e+00 2.4829016336256565e+01 2.0925057185662195e+00 0 0 0
182 1 2 2.4227449318244634e-01 1.7090466585061193e+01 1.7402306212922221e+00 2.9350958320813629e+00 0 0 0
184 1 2 2.7067909864189932e-01 8.7387272037776835e+00 8.5719900248034229e+00 4.0830430397044299e+00 0 0 0
185 1 2 2.5634717602983675e-01 1.1201534227060712e+01 8.2055489236569858e+00 8.1908781706863998e+00 0 0 0
186 1 2 2.5215133751835284e-01 5.0704426561536033e+00 1.4593975315090587e+01 2.7681923829111015e+00 0 0 0