ITEM: TIMESTEP
0
ITEM: NUMBER OF ATOMS
448
ITEM: BOX BOUNDS xy xz yz pp pp pp
-2.4186686450000000e-01 1.3879200000000001e+01 8.1284706647000001e-16
0.0000000000000000e+00 1.3274800000000003e+01 -2.4186686450000000e-01
0.0000000000000000e+00 2.2679910358299999e+01 1.4036330231000001e-15
ITEM: ATOMS id type xs ys zs
1 1 0.343849 0.120487 0.264086
2 2 0.244299 0.126599 0.255313
3 3 0.223367 0.155252 0.212124
4 3 0.198988 0.0964382 0.289641
5 2 0.403633 0.150057 0.218601
6 3 0.483015 0.145994 0.230146
7 3 0.366392 0.175471 0.179045
8 1 0.382043 0.0859719 0.317643
9 2 0.317737 0.0642992 0.37014
10 4 0.3504 0.0817745 0.421756
11 4 0.233001 0.028991 0.358887
12 2 0.488843 0.0720495 0.32739
13 4 0.5128 0.0316614 0.376771
14 4 0.546002 0.104117 0.28786
15 1 0.406151 0.370487 0.485914
16 2 0.505701 0.376599 0.494687
17 3 0.526633 0.405252 0.537876
18 3 0.551012 0.346438 0.460359
19 2 0.346367 0.400057 0.531399
20 3 0.266985 0.395994 0.519854
21 3 0.383608 0.425471 0.570955
22 1 0.367957 0.335972 0.432357
23 2 0.432263 0.314299 0.37986
24 4 0.3996 0.331775 0.328244
25 4 0.516999 0.278991 0.391113
26 2 0.261157 0.32205 0.42261
27 4 0.2372 0.281661 0.373229
28 4 0.203998 0.354117 0.46214
29 1 0.156151 0.379513 0.235914
30 2 0.255701 0.373401 0.244687
31 3 0.276633 0.344748 0.287876
32 3 0.301012 0.403562 0.210359
33 2 0.0963675 0.349943 0.281399
34 3 0.0169845 0.354006 0.269854
35 3 0.133608 0.324529 0.320955
36 1 0.117957 0.414028 0.182356
37 2 0.182263 0.435701 0.129859
38 4 0.149601 0.418225 0.0782441
39 4 0.266998 0.471009 0.141113
40 2 0.0111571 0.42795 0.17261
41 4 0.9872 0.468339 0.123229
42 4 0.953998 0.395883 0.21214
43 1 0.0938494 0.129513 0.0140864
44 2 0.994299 0.123401 0.00531324
45 3 0.973367 0.0947484 0.962124
46 3 0.948988 0.153562 0.0396406
47 2 0.153633 0.0999432 0.968601
48 3 0.233015 0.104006 0.980146
49 3 0.116392 0.0745287 0.929045
50 1 0.132043 0.164028 0.0676434
51 2 0.0677372 0.185701 0.12014
52 4 0.1004 0.168225 0.171756
53 4 0.983001 0.221009 0.108887
54 2 0.238843 0.17795 0.0773904
55 4 0.2628 0.218339 0.126771
56 4 0.296002 0.145883 0.0378597
57 1 0.843849 0.120487 0.264086
58 2 0.744299 0.126599 0.255313
59 3 0.723367 0.155252 0.212124
60 3 0.698988 0.0964382 0.289641
61 2 0.903633 0.150057 0.218601
62 3 0.983015 0.145994 0.230146
63 3 0.866392 0.175471 0.179045
64 1 0.882043 0.0859719 0.317643
65 2 0.817737 0.0642992 0.37014
66 4 0.8504 0.0817745 0.421756
67 4 0.733001 0.0289911 0.358887
68 2 0.988843 0.0720495 0.32739
69 4 0.0127999 0.0316614 0.376771
70 4 0.0460017 0.104117 0.28786
71 1 0.906151 0.370487 0.485914
72 2 0.00570117 0.376599 0.494687
73 3 0.0266328 0.405252 0.537876
74 3 0.0510118 0.346438 0.460359
75 2 0.846367 0.400057 0.531399
76 3 0.766985 0.395994 0.519854
77 3 0.883608 0.425471 0.570955
78 1 0.867957 0.335972 0.432357
79 2 0.932263 0.314299 0.37986
80 4 0.8996 0.331775 0.328244
81 4 0.0169986 0.278991 0.391113
82 2 0.761157 0.32205 0.42261
83 4 0.7372 0.281661 0.373229
84 4 0.703998 0.354117 0.46214
85 1 0.656151 0.379513 0.235914
86 2 0.755701 0.373401 0.244687
87 3 0.776633 0.344748 0.287876
88 3 0.801012 0.403562 0.210359
89 2 0.596367 0.349943 0.281399
90 3 0.516985 0.354006 0.269854
91 3 0.633608 0.324529 0.320955
92 1 0.617957 0.414028 0.182357
93 2 0.682263 0.435701 0.12986
94 4 0.6496 0.418226 0.078244
95 4 0.766999 0.471009 0.141113
96 2 0.511157 0.427951 0.17261
97 4 0.4872 0.468339 0.123228
98 4 0.453998 0.395883 0.212141
99 1 0.593849 0.129513 0.0140865
100 2 0.494299 0.123401 0.00531324
101 3 0.473367 0.0947484 0.962124
102 3 0.448988 0.153562 0.0396406
103 2 0.653633 0.0999432 0.968601
104 3 0.733015 0.104006 0.980146
105 3 0.616392 0.0745287 0.929045
106 1 0.632043 0.164028 0.0676435
107 2 0.567737 0.185701 0.12014
108 4 0.6004 0.168225 0.171756
109 4 0.483001 0.221009 0.108887
110 2 0.738843 0.17795 0.0773904
111 4 0.7628 0.218339 0.126771
112 4 0.796002 0.145883 0.0378597
113 1 0.343849 0.620487 0.264086
114 2 0.244299 0.626599 0.255313
115 3 0.223367 0.655252 0.212124
116 3 0.198988 0.596438 0.289641
117 2 0.403633 0.650057 0.218601
118 3 0.483015 0.645994 0.230146
119 3 0.366392 0.675471 0.179045
120 1 0.382043 0.585972 0.317643
121 2 0.317737 0.564299 0.37014
122 4 0.3504 0.581775 0.421756
123 4 0.233001 0.528991 0.358887
124 2 0.488843 0.57205 0.32739
125 4 0.5128 0.531661 0.376771
126 4 0.546002 0.604117 0.28786
127 1 0.406151 0.870487 0.485914
128 2 0.505701 0.876599 0.494687
129 3 0.526633 0.905252 0.537876
130 3 0.551012 0.846438 0.460359
131 2 0.346367 0.900057 0.531399
132 3 0.266985 0.895994 0.519854
133 3 0.383608 0.925471 0.570955
134 1 0.367957 0.835972 0.432357
135 2 0.432263 0.814299 0.37986
136 4 0.3996 0.831775 0.328244
137 4 0.516999 0.778991 0.391113
138 2 0.261157 0.82205 0.42261
139 4 0.2372 0.781661 0.373229
140 4 0.203998 0.854117 0.46214
141 1 0.156151 0.879513 0.235914
142 2 0.255701 0.873401 0.244687
143 3 0.276633 0.844748 0.287876
144 3 0.301012 0.903562 0.210359
145 2 0.0963675 0.849943 0.281399
146 3 0.0169845 0.854006 0.269854
147 3 0.133608 0.824529 0.320955
148 1 0.117957 0.914028 0.182356
149 2 0.182263 0.935701 0.129859
150 4 0.149601 0.918225 0.0782441
151 4 0.266998 0.971009 0.141113
152 2 0.0111571 0.92795 0.17261
153 4 0.9872 0.968339 0.123229
154 4 0.953998 0.895883 0.21214
155 1 0.0938494 0.629513 0.0140864
156 2 0.994299 0.623401 0.00531324
157 3 0.973367 0.594748 0.962124
158 3 0.948988 0.653562 0.0396406
159 2 0.153633 0.599943 0.968601
160 3 0.233015 0.604006 0.980146
161 3 0.116392 0.574529 0.929045
162 1 0.132043 0.664028 0.0676434
163 2 0.0677372 0.685701 0.12014
164 4 0.1004 0.668225 0.171756
165 4 0.983001 0.721009 0.108887
166 2 0.238843 0.67795 0.0773904
167 4 0.2628 0.718339 0.126771
168 4 0.296002 0.645883 0.0378596
169 1 0.843849 0.620487 0.264086
170 2 0.744299 0.626599 0.255313
171 3 0.723367 0.655252 0.212124
172 3 0.698988 0.596438 0.289641
173 2 0.903633 0.650057 0.218601
174 3 0.983015 0.645994 0.230146
175 3 0.866392 0.675471 0.179045
176 1 0.882043 0.585972 0.317643
177 2 0.817737 0.564299 0.37014
178 4 0.8504 0.581774 0.421756
179 4 0.733001 0.528991 0.358887
180 2 0.988843 0.57205 0.32739
181 4 0.0127999 0.531661 0.376771
182 4 0.0460017 0.604117 0.28786
183 1 0.906151 0.870487 0.485914
184 2 0.00570117 0.876599 0.494687
185 3 0.0266328 0.905252 0.537876
186 3 0.0510118 0.846438 0.460359
187 2 0.846367 0.900057 0.531399
188 3 0.766985 0.895994 0.519854
189 3 0.883608 0.925471 0.570955
190 1 0.867957 0.835972 0.432357
191 2 0.932263 0.814299 0.37986
192 4 0.8996 0.831774 0.328244
193 4 0.0169986 0.778991 0.391113
194 2 0.761157 0.82205 0.42261
195 4 0.7372 0.781661 0.373229
196 4 0.703998 0.854117 0.46214
197 1 0.656151 0.879513 0.235914
198 2 0.755701 0.873401 0.244687
199 3 0.776633 0.844748 0.287876
200 3 0.801012 0.903562 0.210359
201 2 0.596367 0.849943 0.281399
202 3 0.516985 0.854006 0.269854
203 3 0.633608 0.824529 0.320955
204 1 0.617957 0.914028 0.182357
205 2 0.682263 0.935701 0.12986
206 4 0.6496 0.918226 0.078244
207 4 0.766999 0.971009 0.141113
208 2 0.511157 0.927951 0.17261
209 4 0.4872 0.968339 0.123228
210 4 0.453998 0.895883 0.212141
211 1 0.593849 0.629513 0.0140865
212 2 0.494299 0.623401 0.00531324
213 3 0.473367 0.594748 0.962124
214 3 0.448988 0.653562 0.0396406
215 2 0.653633 0.599943 0.968601
216 3 0.733015 0.604006 0.980146
217 3 0.616392 0.574529 0.929045
218 1 0.632043 0.664028 0.0676435
219 2 0.567737 0.685701 0.12014
220 4 0.6004 0.668226 0.171756
221 4 0.483001 0.721009 0.108887
222 2 0.738843 0.67795 0.0773904
223 4 0.7628 0.718339 0.126771
224 4 0.796002 0.645883 0.0378597
225 1 0.343849 0.120487 0.764086
226 2 0.244299 0.126599 0.755313
227 3 0.223367 0.155252 0.712124
228 3 0.198988 0.0964382 0.789641
229 2 0.403633 0.150057 0.718601
230 3 0.483015 0.145994 0.730146
231 3 0.366392 0.175471 0.679045
232 1 0.382043 0.0859718 0.817643
233 2 0.317737 0.0642992 0.87014
234 4 0.3504 0.0817745 0.921756
235 4 0.233001 0.0289912 0.858887
236 2 0.488843 0.0720495 0.82739
237 4 0.5128 0.0316614 0.876771
238 4 0.546002 0.104117 0.78786
239 1 0.406173 0.370514 0.985959
240 2 0.505706 0.376597 0.994693
241 3 0.52663 0.405252 0.0378767
242 3 0.551004 0.346444 0.960362
243 2 0.346364 0.400063 0.0314072
244 3 0.267 0.395995 0.0198568
245 3 0.383609 0.425472 0.0709548
246 1 0.368023 0.335986 0.932383
247 2 0.432302 0.314284 0.879861
248 4 0.399561 0.331798 0.828174
249 4 0.517082 0.278953 0.891116
250 2 0.261133 0.322055 0.922624
251 4 0.237157 0.281575 0.873137
252 4 0.203893 0.35417 0.962208
253 1 0.156151 0.379513 0.735913
254 2 0.255702 0.373401 0.744687
255 3 0.276635 0.344749 0.787876
256 3 0.301012 0.403562 0.710359
257 2 0.0963661 0.349943 0.781399
258 3 0.0169833 0.354006 0.769854
259 3 0.133599 0.324531 0.820951
260 1 0.117957 0.414028 0.682357
261 2 0.182263 0.435701 0.629859
262 4 0.1496 0.418226 0.578244
263 4 0.266998 0.471009 0.641112
264 2 0.0111567 0.427951 0.672609
265 4 0.9872 0.468339 0.623229
266 4 0.953998 0.395883 0.71214
267 1 0.0938494 0.129513 0.514086
268 2 0.994299 0.123401 0.505313
269 3 0.973367 0.0947484 0.462124
270 3 0.948988 0.153562 0.539641
271 2 0.153633 0.0999432 0.468601
272 3 0.233015 0.104006 0.480146
273 3 0.116392 0.0745287 0.429045
274 1 0.132043 0.164028 0.567643
275 2 0.0677372 0.185701 0.62014
276 4 0.1004 0.168225 0.671756
277 4 0.983001 0.221009 0.608887
278 2 0.238843 0.17795 0.57739
279 4 0.2628 0.218339 0.626771
280 4 0.296002 0.145883 0.53786
281 1 0.843849 0.120487 0.764086
282 2 0.744299 0.126599 0.755313
283 3 0.723367 0.155252 0.712124
284 3 0.698988 0.0964382 0.789641
285 2 0.903633 0.150057 0.718601
286 3 0.983015 0.145994 0.730146
287 3 0.866392 0.175471 0.679045
288 1 0.882043 0.0859719 0.817643
289 2 0.817737 0.0642992 0.87014
290 4 0.8504 0.0817745 0.921756
291 4 0.733001 0.0289911 0.858887
292 2 0.988843 0.0720495 0.82739
293 4 0.0127999 0.0316614 0.876771
294 4 0.0460017 0.104117 0.78786
295 1 0.906151 0.370487 0.985914
296 2 0.00570125 0.376599 0.994687
297 3 0.0266328 0.405252 0.037876
298 3 0.0510115 0.346438 0.960359
299 2 0.846367 0.400057 0.0313991
300 3 0.766985 0.395994 0.0198538
301 3 0.883608 0.425471 0.0709546
302 1 0.867957 0.335972 0.932357
303 2 0.932263 0.314299 0.87986
304 4 0.8996 0.331774 0.828244
305 4 0.0169983 0.278991 0.891113
306 2 0.761157 0.32205 0.92261
307 4 0.7372 0.281661 0.873229
308 4 0.703998 0.354117 0.96214
309 1 0.656151 0.379513 0.735913
310 2 0.755701 0.373401 0.744687
311 3 0.776633 0.344748 0.787876
312 3 0.801012 0.403562 0.710359
313 2 0.596368 0.349943 0.781399
314 3 0.516985 0.354006 0.769853
315 3 0.633608 0.324529 0.820955
316 1 0.617957 0.414028 0.682357
317 2 0.682263 0.435701 0.62986
318 4 0.6496 0.418226 0.578244
319 4 0.766999 0.471009 0.641113
320 2 0.511157 0.427951 0.67261
321 4 0.4872 0.468339 0.623229
322 4 0.453998 0.395883 0.71214
323 1 0.593849 0.129513 0.514086
324 2 0.494299 0.123401 0.505313
325 3 0.473367 0.0947484 0.462124
326 3 0.448988 0.153562 0.539641
327 2 0.653633 0.0999432 0.468601
328 3 0.733015 0.104006 0.480146
329 3 0.616392 0.0745287 0.429045
330 1 0.632043 0.164028 0.567643
331 2 0.567737 0.185701 0.62014
332 4 0.6004 0.168225 0.671756
333 4 0.483001 0.221009 0.608887
334 2 0.738843 0.17795 0.57739
335 4 0.7628 0.218339 0.626771
336 4 0.796002 0.145883 0.53786
337 1 0.343849 0.620487 0.764086
338 2 0.244299 0.626599 0.755313
339 3 0.223367 0.655252 0.712124
340 3 0.198988 0.596438 0.789641
341 2 0.403633 0.650057 0.718601
342 3 0.483015 0.645994 0.730146
343 3 0.366392 0.675471 0.679045
344 1 0.382043 0.585972 0.817643
345 2 0.317737 0.564299 0.87014
346 4 0.3504 0.581775 0.921756
347 4 0.233001 0.528991 0.858887
348 2 0.488843 0.57205 0.82739
349 4 0.5128 0.531661 0.876771
350 4 0.546002 0.604117 0.78786
351 1 0.406173 0.870514 0.985959
352 2 0.505706 0.876597 0.994693
353 3 0.52663 0.905252 0.0378767
354 3 0.551004 0.846444 0.960362
355 2 0.346364 0.900063 0.0314072
356 3 0.267 0.895995 0.0198568
357 3 0.383609 0.925472 0.0709548
358 1 0.368023 0.835986 0.932383
359 2 0.432302 0.814284 0.879861
360 4 0.399561 0.831798 0.828173
361 4 0.517082 0.778953 0.891116
362 2 0.261133 0.822055 0.922624
363 4 0.237157 0.781575 0.873137
364 4 0.203893 0.85417 0.962208
365 1 0.156151 0.879513 0.735913
366 2 0.255702 0.873401 0.744687
367 3 0.276635 0.844749 0.787876
368 3 0.301012 0.903562 0.710359
369 2 0.0963661 0.849943 0.781399
370 3 0.0169833 0.854006 0.769854
371 3 0.133599 0.824531 0.820951
372 1 0.117957 0.914028 0.682357
373 2 0.182263 0.935701 0.629859
374 4 0.1496 0.918226 0.578244
375 4 0.266998 0.971009 0.641112
376 2 0.0111567 0.927951 0.672609
377 4 0.9872 0.968339 0.623229
378 4 0.953998 0.895883 0.71214
379 1 0.0938494 0.629513 0.514086
380 2 0.994299 0.623401 0.505313
381 3 0.973367 0.594748 0.462124
382 3 0.948988 0.653562 0.539641
383 2 0.153633 0.599943 0.468601
384 3 0.233015 0.604006 0.480146
385 3 0.116392 0.574529 0.429045
386 1 0.132043 0.664028 0.567643
387 2 0.0677372 0.685701 0.62014
388 4 0.1004 0.668225 0.671756
389 4 0.983001 0.721009 0.608887
390 2 0.238843 0.67795 0.57739
391 4 0.2628 0.718339 0.626771
392 4 0.296002 0.645883 0.53786
393 1 0.843849 0.620487 0.764086
394 2 0.744299 0.626599 0.755313
395 3 0.723367 0.655252 0.712124
396 3 0.698988 0.596438 0.789641
397 2 0.903633 0.650057 0.718601
398 3 0.983015 0.645994 0.730146
399 3 0.866392 0.675471 0.679045
400 1 0.882043 0.585972 0.817643
401 2 0.817737 0.564299 0.87014
402 4 0.8504 0.581774 0.921756
403 4 0.733001 0.528991 0.858887
404 2 0.988843 0.57205 0.82739
405 4 0.0127999 0.531661 0.876771
406 4 0.0460017 0.604117 0.78786
407 1 0.906151 0.870487 0.985914
408 2 0.00570125 0.876599 0.994687
409 3 0.0266328 0.905252 0.037876
410 3 0.0510115 0.846438 0.960359
411 2 0.846367 0.900057 0.0313991
412 3 0.766985 0.895994 0.0198538
413 3 0.883608 0.925471 0.0709546
414 1 0.867957 0.835972 0.932357
415 2 0.932263 0.814299 0.87986
416 4 0.8996 0.831774 0.828244
417 4 0.0169983 0.778991 0.891113
418 2 0.761157 0.82205 0.92261
419 4 0.7372 0.781661 0.873229
420 4 0.703998 0.854117 0.96214
421 1 0.656151 0.879513 0.735913
422 2 0.755701 0.873401 0.744687
423 3 0.776633 0.844748 0.787876
424 3 0.801012 0.903562 0.710359
425 2 0.596368 0.849943 0.781399
426 3 0.516985 0.854006 0.769853
427 3 0.633608 0.824529 0.820955
428 1 0.617957 0.914028 0.682357
429 2 0.682263 0.935701 0.62986
430 4 0.6496 0.918226 0.578244
431 4 0.766999 0.971009 0.641113
432 2 0.511157 0.927951 0.67261
433 4 0.4872 0.968339 0.623229
434 4 0.453998 0.895883 0.71214
435 1 0.593849 0.629513 0.514086
436 2 0.494299 0.623401 0.505313
437 3 0.473367 0.594748 0.462124
438 3 0.448988 0.653562 0.539641
439 2 0.653633 0.599943 0.468601
440 3 0.733015 0.604006 0.480146
441 3 0.616392 0.574529 0.429045
442 1 0.632043 0.664028 0.567643
443 2 0.567737 0.685701 0.62014
444 4 0.6004 0.668225 0.671756
445 4 0.483001 0.721009 0.608887
446 2 0.738843 0.67795 0.57739
447 4 0.7628 0.718339 0.626771
448 4 0.796002 0.645883 0.53786
ITEM: TIMESTEP
1000
ITEM: NUMBER OF ATOMS
448
ITEM: BOX BOUNDS xy xz yz pp pp pp
1.3072620320004194e-01 1.3878927284989242e+01 1.3128085713985199e-01
-3.6522492076141672e-01 1.3525140571941696e+01 -8.2736895064603681e-04
6.7202691566238926e-02 2.2612707666733673e+01 -1.1488434881969473e-01
ITEM: ATOMS id type xs ys zs
1 1 0.3325 0.10366 0.250321
2 2 0.237268 0.145581 0.241916
3 3 0.227146 0.152811 0.195543
4 3 0.185128 0.132964 0.280332
5 2 0.400077 0.105405 0.204951
6 3 0.483013 0.0860205 0.227919
7 3 0.372735 0.146334 0.168617
8 1 0.358699 0.0674802 0.307135
9 2 0.274218 0.0692809 0.353558
10 4 0.29027 0.126624 0.396061
11 4 0.199847 0.0165341 0.343401
12 2 0.460223 0.0671715 0.326241
13 4 0.47447 0.0616121 0.383705
14 4 0.532514 0.0797493 0.288882
15 1 0.395786 0.358836 0.491129
16 2 0.496354 0.34596 0.507431
17 3 0.507844 0.377534 0.549194
18 3 0.543399 0.341682 0.463439
19 2 0.336457 0.396182 0.535425
20 3 0.250589 0.404844 0.515291
21 3 0.366118 0.41013 0.579526
22 1 0.362089 0.345978 0.432935
23 2 0.44061 0.329313 0.381479
24 4 0.406716 0.325289 0.33028
25 4 0.531163 0.315009 0.39417
26 2 0.262019 0.361346 0.415306
27 4 0.236553 0.34031 0.361232
28 4 0.199098 0.392087 0.454251
29 1 0.151278 0.386194 0.247658
30 2 0.255321 0.390123 0.25747
31 3 0.267582 0.439 0.293294
32 3 0.295137 0.372407 0.212754
33 2 0.0924486 0.397028 0.296808
34 3 0.00779373 0.408335 0.284435
35 3 0.130173 0.372601 0.346169
36 1 0.106174 0.384731 0.192129
37 2 0.170265 0.39361 0.138694
38 4 0.126088 0.397662 0.0892042
39 4 0.26492 0.390925 0.144653
40 2 0.994458 0.391956 0.182231
41 4 0.963944 0.389538 0.130123
42 4 0.936457 0.396887 0.228285
43 1 0.098116 0.126342 0.992165
44 2 0.998055 0.124331 0.980109
45 3 0.987434 0.115158 0.930235
46 3 0.94638 0.127522 0.0214127
47 2 0.167216 0.130311 0.945536
48 3 0.242358 0.107308 0.965637
49 3 0.129907 0.0860564 0.911411
50 1 0.133485 0.135614 0.0508102
51 2 0.0588002 0.15523 0.101042
52 4 0.0946804 0.176137 0.15109
53 4 0.966609 0.153277 0.0920829
54 2 0.23775 0.12494 0.0658258
55 4 0.261668 0.139735 0.119382
56 4 0.306002 0.119418 0.0236437
57 1 0.853587 0.143177 0.246632
58 2 0.7531 0.134043 0.236098
59 3 0.736224 0.169996 0.194362
60 3 0.709207 0.12056 0.279937
61 2 0.91346 0.172451 0.199577
62 3 0.994936 0.155576 0.208813
63 3 0.87196 0.169701 0.156695
64 1 0.886507 0.120267 0.303429
65 2 0.817218 0.095086 0.353569
66 4 0.859978 0.0884267 0.403618
67 4 0.724184 0.0849547 0.347063
68 2 0.995577 0.121774 0.315309
69 4 0.0159116 0.108895 0.370266
70 4 0.0582967 0.131775 0.273015
71 1 0.894965 0.383244 0.498642
72 2 0.995392 0.379731 0.511216
73 3 0.997642 0.390878 0.558988
74 3 0.0314146 0.341805 0.471931
75 2 0.837445 0.425828 0.54552
76 3 0.755467 0.421176 0.531425
77 3 0.866421 0.389048 0.58491
78 1 0.858929 0.352129 0.442372
79 2 0.926423 0.330713 0.39107
80 4 0.889787 0.327187 0.338365
81 4 0.0199113 0.331031 0.40055
82 2 0.751743 0.35544 0.432026
83 4 0.725303 0.328894 0.380707
84 4 0.693364 0.392145 0.472317
85 1 0.655888 0.365678 0.243652
86 2 0.755629 0.367754 0.254479
87 3 0.767547 0.342979 0.300096
88 3 0.793322 0.415283 0.217858
89 2 0.595342 0.316325 0.285688
90 3 0.515979 0.330176 0.26535
91 3 0.623809 0.343025 0.328245
92 1 0.615406 0.403054 0.190814
93 2 0.683846 0.425321 0.138463
94 4 0.637483 0.41748 0.0908331
95 4 0.77507 0.437555 0.147531
96 2 0.50737 0.423663 0.182745
97 4 0.483048 0.473014 0.136806
98 4 0.446723 0.392349 0.221552
99 1 0.597269 0.126137 0.990267
100 2 0.494861 0.138777 0.982018
101 3 0.474468 0.0954378 0.938961
102 3 0.463098 0.122936 0.0286199
103 2 0.651599 0.115812 0.936941
104 3 0.735397 0.126966 0.95791
105 3 0.606016 0.143322 0.900814
106 1 0.637325 0.132498 0.0473101
107 2 0.570168 0.143074 0.102025
108 4 0.612666 0.158563 0.151176
109 4 0.476463 0.133991 0.100311
110 2 0.742503 0.142921 0.0608662
111 4 0.770747 0.150726 0.115649
112 4 0.800642 0.146109 0.0151258
113 1 0.343012 0.646667 0.250827
114 2 0.244662 0.633266 0.239833
115 3 0.220006 0.674697 0.199907
116 3 0.1982 0.597459 0.284891
117 2 0.398796 0.688365 0.204552
118 3 0.476188 0.691385 0.224716
119 3 0.370767 0.678181 0.157262
120 1 0.382931 0.612627 0.304452
121 2 0.318117 0.590523 0.355609
122 4 0.361234 0.59161 0.404449
123 4 0.221185 0.584015 0.349957
124 2 0.493719 0.59422 0.308541
125 4 0.523323 0.538563 0.348663
126 4 0.548327 0.631091 0.267447
127 1 0.40439 0.887391 0.496408
128 2 0.508684 0.886519 0.505052
129 3 0.512334 0.904177 0.551762
130 3 0.540651 0.824363 0.477907
131 2 0.345828 0.927495 0.541567
132 3 0.260136 0.919147 0.534032
133 3 0.3902 0.935369 0.582297
134 1 0.362642 0.850307 0.444795
135 2 0.427738 0.824253 0.39403
136 4 0.394825 0.826412 0.340391
137 4 0.517738 0.803794 0.406796
138 2 0.251422 0.848656 0.438093
139 4 0.224087 0.809263 0.390074
140 4 0.193982 0.882538 0.478718
141 1 0.16581 0.857659 0.250275
142 2 0.267503 0.867204 0.259411
143 3 0.283828 0.85943 0.308541
144 3 0.304719 0.904659 0.219008
145 2 0.104183 0.822873 0.29878
146 3 0.032262 0.814221 0.278472
147 3 0.120538 0.880433 0.329527
148 1 0.120009 0.882179 0.196958
149 2 0.179737 0.893972 0.143292
150 4 0.131332 0.894983 0.0942895
151 4 0.274587 0.900978 0.148482
152 2 0.00532185 0.90212 0.191558
153 4 0.98422 0.959634 0.150475
154 4 0.951642 0.860447 0.229364
155 1 0.106975 0.589597 0.00682126
156 2 0.00607693 0.589952 0.989992
157 3 0.00461702 0.620797 0.944406
158 3 0.956593 0.596702 0.0318537
159 2 0.171211 0.576489 0.95854
160 3 0.259067 0.581569 0.970492
161 3 0.134085 0.592728 0.917293
162 1 0.136774 0.620602 0.0634426
163 2 0.0623433 0.64761 0.112589
164 4 0.0968203 0.678732 0.161269
165 4 0.969108 0.641848 0.101389
166 2 0.241798 0.635203 0.0717915
167 4 0.264112 0.664527 0.125001
168 4 0.305016 0.615504 0.0312231
169 1 0.844045 0.650563 0.247976
170 2 0.741939 0.656955 0.239579
171 3 0.734231 0.662008 0.191947
172 3 0.69905 0.618336 0.275832
173 2 0.907945 0.681027 0.202518
174 3 0.989588 0.691147 0.220961
175 3 0.88679 0.677938 0.155791
176 1 0.88484 0.621754 0.302666
177 2 0.820396 0.602552 0.353939
178 4 0.862899 0.600274 0.404531
179 4 0.726281 0.604738 0.345304
180 2 0.996341 0.604713 0.307156
181 4 0.0207584 0.54826 0.34864
182 4 0.058135 0.640457 0.269225
183 1 0.911426 0.873066 0.509188
184 2 0.0112005 0.855632 0.525541
185 3 0.0218638 0.905057 0.563294
186 3 0.044028 0.854062 0.482617
187 2 0.839388 0.90186 0.549091
188 3 0.760252 0.895405 0.525958
189 3 0.869013 0.888033 0.59448
190 1 0.8867 0.865003 0.448502
191 2 0.968335 0.839825 0.403839
192 4 0.973051 0.89286 0.358102
193 4 0.0205149 0.763817 0.414287
194 2 0.784516 0.865503 0.427001
195 4 0.771716 0.845957 0.371487
196 4 0.713685 0.886732 0.46299
197 1 0.660189 0.89077 0.26194
198 2 0.766275 0.881082 0.268262
199 3 0.773452 0.948668 0.297957
200 3 0.800157 0.86438 0.226837
201 2 0.602706 0.875132 0.31283
202 3 0.526305 0.860077 0.295647
203 3 0.659145 0.849165 0.352165
204 1 0.621773 0.904043 0.206149
205 2 0.68612 0.908046 0.152021
206 4 0.640229 0.919493 0.103234
207 4 0.78037 0.90279 0.157748
208 2 0.510786 0.913363 0.200174
209 4 0.479601 0.948448 0.150645
210 4 0.451338 0.887656 0.240373
211 1 0.59307 0.615149 0.00321506
212 2 0.490423 0.614325 0.991344
213 3 0.486272 0.619511 0.942721
214 3 0.461954 0.673724 0.0215725
215 2 0.652761 0.562615 0.963214
216 3 0.739884 0.574006 0.972474
217 3 0.624749 0.573363 0.919307
218 1 0.635613 0.658008 0.0526397
219 2 0.565541 0.688477 0.104205
220 4 0.606878 0.69259 0.154641
221 4 0.475754 0.706247 0.0932212
222 2 0.744094 0.656055 0.0593632
223 4 0.77139 0.705337 0.104026
224 4 0.806333 0.608667 0.0251898
225 1 0.357421 0.138341 0.759078
226 2 0.259051 0.132619 0.748425
227 3 0.235132 0.149039 0.702382
228 3 0.218482 0.0892634 0.783845
229 2 0.415405 0.1726 0.711599
230 3 0.500512 0.17408 0.726367
231 3 0.377143 0.166761 0.668639
232 1 0.397007 0.103133 0.813599
233 2 0.334236 0.0820401 0.86463
234 4 0.363336 0.0734002 0.918452
235 4 0.241834 0.066848 0.852039
236 2 0.506548 0.0831864 0.817732
237 4 0.528877 0.0266228 0.859195
238 4 0.563443 0.119905 0.777302
239 1 0.401903 0.364327 0.0030011
240 2 0.500134 0.341508 0.0177934
241 3 0.51599 0.383453 0.059998
242 3 0.537809 0.327044 0.977381
243 2 0.339486 0.408885 0.041588
244 3 0.252393 0.414388 0.0183363
245 3 0.372224 0.416937 0.0841284
246 1 0.366599 0.343062 0.944837
247 2 0.440525 0.318997 0.892434
248 4 0.422239 0.373207 0.847671
249 4 0.49697 0.24736 0.895925
250 2 0.265458 0.342748 0.929141
251 4 0.243224 0.325455 0.872888
252 4 0.199075 0.383238 0.964264
253 1 0.157133 0.382562 0.753608
254 2 0.263687 0.378347 0.761707
255 3 0.26897 0.423542 0.799674
256 3 0.300864 0.39903 0.71699
257 2 0.0977205 0.373522 0.802887
258 3 0.023936 0.35885 0.787883
259 3 0.145588 0.363328 0.852826
260 1 0.118089 0.399761 0.698267
261 2 0.18549 0.405627 0.644064
262 4 0.13905 0.410184 0.595108
263 4 0.27912 0.407437 0.648103
264 2 0.0101647 0.424744 0.691446
265 4 0.978763 0.466873 0.644833
266 4 0.955487 0.408902 0.736718
267 1 0.0776449 0.132553 0.506084
268 2 0.982346 0.113834 0.499508
269 3 0.97169 0.0981499 0.451821
270 3 0.936724 0.120133 0.552954
271 2 0.139845 0.124823 0.453745
272 3 0.213044 0.141007 0.4723
273 3 0.106146 0.0680213 0.429625
274 1 0.126362 0.150877 0.561494
275 2 0.0670801 0.168378 0.613585
276 4 0.101216 0.179152 0.662815
277 4 0.965559 0.181567 0.600856
278 2 0.2378 0.157181 0.569099
279 4 0.267962 0.1646 0.622667
280 4 0.294305 0.156735 0.52341
281 1 0.854671 0.139332 0.74502
282 2 0.75734 0.124188 0.726493
283 3 0.738997 0.164414 0.689052
284 3 0.72265 0.0903887 0.7705
285 2 0.919118 0.196009 0.710241
286 3 0.984855 0.21103 0.736122
287 3 0.907011 0.164634 0.659697
288 1 0.891236 0.108701 0.79976
289 2 0.826278 0.0929614 0.852575
290 4 0.866648 0.0895768 0.904734
291 4 0.734538 0.0860606 0.841322
292 2 0.00206035 0.0945064 0.809585
293 4 0.0268812 0.0317584 0.847878
294 4 0.0594054 0.147974 0.779548
295 1 0.88616 0.359961 0.993917
296 2 0.98758 0.353687 0.00662971
297 3 0.00580123 0.38013 0.050733
298 3 0.0163663 0.305921 0.966403
299 2 0.824138 0.398751 0.0384448
300 3 0.744998 0.390037 0.0179251
301 3 0.854524 0.387663 0.0832067
302 1 0.850382 0.33589 0.938308
303 2 0.920416 0.320464 0.884618
304 4 0.888943 0.334157 0.833265
305 4 0.0103644 0.294893 0.895852
306 2 0.744801 0.320298 0.925231
307 4 0.723405 0.284126 0.875087
308 4 0.680929 0.352641 0.962161
309 1 0.661731 0.386114 0.750089
310 2 0.762755 0.391599 0.760157
311 3 0.77641 0.371827 0.80843
312 3 0.80933 0.398907 0.719886
313 2 0.606008 0.378798 0.802866
314 3 0.52527 0.382602 0.790501
315 3 0.645393 0.410071 0.839282
316 1 0.61907 0.394648 0.694227
317 2 0.685849 0.392907 0.642521
318 4 0.636578 0.385578 0.59448
319 4 0.780322 0.380558 0.647193
320 2 0.507732 0.406405 0.68602
321 4 0.468067 0.414833 0.635326
322 4 0.453961 0.408104 0.732712
323 1 0.579496 0.127923 0.493142
324 2 0.474118 0.137079 0.486391
325 3 0.467457 0.185932 0.448436
326 3 0.443999 0.157276 0.532048
327 2 0.634925 0.104382 0.443611
328 3 0.71315 0.0872845 0.454367
329 3 0.58096 0.0822323 0.399039
330 1 0.624085 0.144543 0.548659
331 2 0.566543 0.150149 0.606026
332 4 0.620735 0.140767 0.653272
333 4 0.474663 0.157307 0.60399
334 2 0.732952 0.143974 0.554967
335 4 0.773252 0.169828 0.604882
336 4 0.784314 0.122228 0.509689
337 1 0.348689 0.635806 0.745747
338 2 0.251172 0.619844 0.731873
339 3 0.23914 0.649848 0.684108
340 3 0.212133 0.601618 0.776803
341 2 0.411878 0.677338 0.700736
342 3 0.483706 0.683546 0.720975
343 3 0.397715 0.629957 0.661561
344 1 0.383203 0.613423 0.802948
345 2 0.316581 0.599863 0.856547
346 4 0.357352 0.600064 0.907198
347 4 0.225137 0.586248 0.846591
348 2 0.490316 0.601032 0.810381
349 4 0.517047 0.547899 0.853901
350 4 0.553304 0.637318 0.772708
351 1 0.415003 0.884641 0.00256765
352 2 0.513052 0.877354 0.0138118
353 3 0.531928 0.923584 0.0514284
354 3 0.558241 0.84275 0.971553
355 2 0.353735 0.929055 0.0475781
356 3 0.280455 0.944404 0.0254558
357 3 0.365442 0.88437 0.0853914
358 1 0.373648 0.854729 0.948166
359 2 0.440175 0.828117 0.897886
360 4 0.395264 0.82839 0.848808
361 4 0.533349 0.814637 0.906553
362 2 0.262661 0.852238 0.937915
363 4 0.237559 0.788452 0.900187
364 4 0.207382 0.909887 0.967968
365 1 0.154343 0.878364 0.758614
366 2 0.254883 0.902239 0.773696
367 3 0.274248 0.855868 0.810595
368 3 0.29433 0.896439 0.729045
369 2 0.106002 0.822227 0.801317
370 3 0.0242091 0.820575 0.782154
371 3 0.128312 0.841232 0.847615
372 1 0.115737 0.903331 0.703416
373 2 0.180498 0.912452 0.650134
374 4 0.140176 0.917638 0.600187
375 4 0.275376 0.918215 0.658828
376 2 0.0040731 0.910425 0.696487
377 4 0.975824 0.955782 0.651584
378 4 0.949255 0.874526 0.73828
379 1 0.0955126 0.639475 0.507052
380 2 0.991716 0.64289 0.501208
381 3 0.98233 0.63667 0.451631
382 3 0.967963 0.700759 0.535911
383 2 0.151753 0.603939 0.45906
384 3 0.234371 0.615338 0.464607
385 3 0.107737 0.615467 0.420464
386 1 0.144943 0.671918 0.558331
387 2 0.0800171 0.684827 0.61145
388 4 0.120254 0.681504 0.661925
389 4 0.985704 0.692964 0.604818
390 2 0.25511 0.690215 0.55923
391 4 0.28561 0.731234 0.606274
392 4 0.305883 0.654453 0.516525
393 1 0.842076 0.628137 0.755588
394 2 0.743565 0.656823 0.755404
395 3 0.716681 0.653057 0.707398
396 3 0.710337 0.634326 0.800553
397 2 0.896167 0.620037 0.705085
398 3 0.971128 0.576 0.716655
399 3 0.860546 0.64831 0.661794
400 1 0.886433 0.6026 0.810966
401 2 0.825769 0.583617 0.86563
402 4 0.877461 0.549324 0.907594
403 4 0.731675 0.590241 0.864988
404 2 0.99507 0.601941 0.813161
405 4 0.0364718 0.609554 0.863009
406 4 0.0506219 0.593736 0.765555
407 1 0.896146 0.8675 0.0101797
408 2 0.993014 0.844393 0.027318
409 3 0.00760988 0.873066 0.0719738
410 3 0.0423594 0.860216 0.982639
411 2 0.827783 0.89349 0.052382
412 3 0.749133 0.923437 0.029541
413 3 0.86574 0.905162 0.0947342
414 1 0.864027 0.865452 0.948246
415 2 0.933806 0.825685 0.903743
416 4 0.901881 0.799697 0.854054
417 4 0.0285719 0.824148 0.916713
418 2 0.760218 0.880517 0.932133
419 4 0.741495 0.862475 0.877042
420 4 0.695064 0.906191 0.970271
421 1 0.651124 0.877862 0.75518
422 2 0.755148 0.885367 0.764247
423 3 0.779336 0.83759 0.797911
424 3 0.787796 0.90291 0.721534
425 2 0.59283 0.86805 0.80513
426 3 0.509858 0.853719 0.791048
427 3 0.635164 0.894713 0.847376
428 1 0.614891 0.877469 0.69742
429 2 0.680229 0.883677 0.642514
430 4 0.637808 0.887495 0.592636
431 4 0.775017 0.885355 0.648413
432 2 0.506368 0.887168 0.689
433 4 0.479112 0.908602 0.636512
434 4 0.445816 0.879329 0.73208
435 1 0.598999 0.635405 0.493647
436 2 0.49691 0.635265 0.481034
437 3 0.486851 0.618603 0.435112
438 3 0.45068 0.627596 0.52166
439 2 0.664653 0.630548 0.44749
440 3 0.75611 0.623203 0.46941
441 3 0.621307 0.621267 0.406524
442 1 0.631612 0.634173 0.553089
443 2 0.555716 0.6325 0.605306
444 4 0.588015 0.640623 0.656488
445 4 0.46274 0.617671 0.595368
446 2 0.734335 0.640391 0.56804
447 4 0.758898 0.651594 0.622315
448 4 0.803899 0.630575 0.527085
ITEM: TIMESTEP
2000
ITEM: NUMBER OF ATOMS
448
ITEM: BOX BOUNDS xy xz yz pp pp pp