LAMMPS data file via write_data, version 15 Apr 2020, timestep = 80000

448 atoms
4 atom types

5.0932666878839683e-02 1.3828267333120889e+01 xlo xhi
2.5697417291912927e-01 1.3017825827080696e+01 ylo yhi
-4.1041819788427247e-02 2.2720952178088041e+01 zlo zhi
-3.4856149554693077e+00 -4.7739957588547594e-01 -1.5640749338069131e+00 xy xz yz

Masses

1 12.0107
2 14.0067
3 1.00794
4 15.9994

Atoms # full

1 1 1 -1.9717321141677513e-01 5.4608770316242587e+00 1.4473832077763868e+00 4.6612225716327362e+00 0 0 0
2 1 2 8.7230509357933958e-02 4.2357174482828110e+00 7.2334063350040667e-01 4.3264848926876649e+00 0 0 0
3 1 3 2.2270639189228855e-01 3.6486256509476815e+00 1.5367800775879068e+00 3.8270138478467675e+00 0 0 0
4 1 3 2.3549766711628967e-01 4.0097413610129058e+00 1.4462354661319898e-01 5.3066710532968377e+00 0 0 0
5 1 2 9.6125433269873523e-02 6.2243592158887324e+00 2.0123048043211753e+00 3.6254280504689036e+00 0 0 0
6 1 3 2.2920094666023913e-01 7.2519399326700373e+00 2.1160544825465748e+00 4.2346311084972577e+00 0 0 0
7 1 3 2.3777910017246034e-01 5.7719015945593206e+00 1.5733214919944181e+00 2.6247422380938259e+00 0 0 0
8 1 1 -1.4613764495774864e-01 5.8914522275487506e+00 1.4665386943853744e+00 6.0215339851217120e+00 0 0 0
9 1 2 3.8114228832049646e-01 4.8736022086471698e+00 1.3481160265393504e+00 7.1497207476425606e+00 0 0 0
10 1 4 -3.6611761027317052e-01 5.0872028912924439e+00 1.9306596206069802e+00 8.2612392123089542e+00 0 0 0
11 1 4 -3.7339898917723030e-01 3.7770278321176778e+00 7.6273854296171439e-01 6.8062306981922083e+00 0 0 0
12 1 2 3.7159870771875858e-01 7.2997745272386654e+00 1.6267237250794966e+00 6.3884031835303583e+00 0 0 0
13 1 4 -3.7542170139838615e-01 7.5042734981068939e+00 1.4319807289038340e+00 7.6782306935523206e+00 0 0 0
14 1 4 -3.7710151315479462e-01 8.1648894178756297e+00 1.9534155408958234e+00 5.5071575860148894e+00 0 0 0
15 1 1 -1.9417738890676373e-01 2.9343804562903819e+00 4.1183398742068578e+00 1.2392906672038192e+01 0 0 0
16 1 2 8.8933758148899783e-02 4.3517189022928040e+00 4.0401201836762439e+00 1.2596238345583599e+01 0 0 0
17 1 3 1.8970536072452152e-01 4.4499734821450003e+00 2.9618512812649405e+00 1.2974855497180876e+01 0 0 0
18 1 3 2.2823154119301714e-01 4.9030818911716292e+00 4.4042667846483008e+00 1.1694971505873054e+01 0 0 0
19 1 2 8.3702749491473355e-02 2.1368042041178170e+00 3.5758462977176180e+00 1.3453858677838054e+01 0 0 0
20 1 3 2.3733510914460859e-01 1.0728587954441324e+00 3.7119320382478804e+00 1.3126728634748307e+01 0 0 0
21 1 3 2.2899724749508701e-01 2.7205595646791028e+00 3.8103977970700571e+00 1.4448079191315086e+01 0 0 0
22 1 1 -1.3865117351177311e-01 2.3414532906375189e+00 4.4451898997220622e+00 1.1167543462642950e+01 0 0 0
23 1 2 3.8563351589409267e-01 3.2866711247209879e+00 4.8808638190503899e+00 1.0016101448987845e+01 0 0 0
24 1 4 -3.2294547626438691e-01 2.6219012027597151e+00 5.2293501322003770e+00 8.9908534474795019e+00 0 0 0
25 1 4 -3.9341832664294835e-01 4.5363439507542775e+00 4.9205067614447664e+00 1.0150854071363849e+01 0 0 0
26 1 2 3.8173805325163807e-01 9.5991609559613211e-01 4.1148946362933483e+00 1.0829226498162649e+01 0 0 0
27 1 4 -3.6996121801685672e-01 6.3578357275149699e-01 4.2865920407386175e+00 9.5732502697511528e+00 0 0 0
28 1 4 -3.6369706040249761e-01 1.8321746272010381e-01 3.6777675597769273e+00 1.1750518005364500e+01 0 0 0
29 1 1 -1.8160124609291087e-01 -5.5154923653248988e-01 4.7897231398795803e+00 6.7553514665173422e+00 0 0 0
30 1 2 1.7642083070541650e-01 7.5548037283846625e-01 5.1350293589273743e+00 6.9337438961172166e+00 0 0 0
31 1 3 2.3257056583556829e-01 1.0628717350516792e+00 4.9667303828744531e+00 7.9126278401078185e+00 0 0 0
32 1 3 3.1263436755469370e-01 1.7344821915657107e+00 5.0336793138598486e+00 4.8050875087371052e+00 0 0 0
33 1 2 8.4717652388065764e-02 1.2359134375582284e+01 4.4100548991674025e+00 7.8499001001194770e+00 -1 0 0
34 1 3 2.3285524661722370e-01 1.1451128529496192e+01 4.0346091278161422e+00 7.4027098271448111e+00 -1 0 0
35 1 3 2.1755778330074038e-01 -9.2571753508403021e-01 4.1200745238785474e+00 8.8397402103890190e+00 0 0 0
36 1 1 -1.4867232265692348e-01 -1.1348584906854327e+00 4.8466959855782532e+00 5.4093857445725622e+00 0 0 0
37 1 2 3.5608935291492794e-01 -3.2178323741813103e-01 5.2344156507608073e+00 4.3984002401383737e+00 0 0 0
38 1 4 -3.7301989668664859e-01 -5.7442864082374445e-01 5.2913375964276943e+00 3.2146173192721270e+00 0 0 0
39 1 4 -4.2426200025095900e-01 1.0814825796883316e+00 5.6668194524272666e+00 5.0215886497966045e+00 0 0 0
40 1 2 3.6492358840519240e-01 1.1126225148945954e+01 4.5365097156604763e+00 5.1174172111867229e+00 -1 0 0
41 1 4 -3.9540079406612078e-01 1.0661884515016190e+01 4.6706873343610154e+00 3.9360617338742681e+00 0 0 0
42 1 4 -3.7126602013620424e-01 1.0449729696170550e+01 4.1047985747940077e+00 6.0986690012548337e+00 0 0 0
43 1 1 -1.9852817016251120e-01 1.7605009226838004e+00 3.6147725503342509e-01 2.1778234657093613e+01 0 0 -1
44 1 2 9.6910126411391351e-02 3.2741383921784462e-01 2.5593222979005725e-01 2.1518151321177825e+01 1 0 -1
45 1 3 2.0813517882666163e-01 4.4285001622909487e-01 1.2355624104369107e+00 2.1134019985324969e+01 1 0 0
46 1 3 2.3543740389508658e-01 -2.3198297263648970e-01 2.7059037650651874e-03 2.2503713294642850e+01 1 0 -1
47 1 2 9.2799824403942577e-02 2.6696810812894927e+00 2.0430870357618169e-01 2.0697483839384979e+01 0 0 0
48 1 3 2.3518309912261615e-01 3.8272203028495482e+00 1.9357583250841803e-01 2.1202432440785110e+01 0 0 0
49 1 3 2.2386073207065638e-01 2.1724055952038426e+00 3.8964203745699222e-01 1.9697304720068935e+01 0 0 0
50 1 1 -1.4238163731347561e-01 2.7122942513015342e+00 2.0507577751421335e+00 3.4837368475255703e-01 0 0 0
51 1 2 3.6566012823733413e-01 1.6565371977921575e+00 2.2216031595321191e+00 1.4846050084375133e+00 0 0 0
52 1 4 -3.4483560171995337e-01 2.1664980070926330e+00 2.6028695343089612e+00 2.5718011933955540e+00 0 0 0
53 1 4 -3.7799377108177468e-01 3.9684727648681489e-01 2.1430356393849399e+00 1.2451172756513000e+00 1 0 0
54 1 2 3.8710507559541635e-01 4.0845969980452121e+00 1.8738074007998293e+00 7.1790023964794802e-01 0 0 0
55 1 4 -3.6803839522325327e-01 4.3234666539123365e+00 1.8460791045216340e+00 2.0044565352713652e+00 0 0 0
56 1 4 -3.7171823187050790e-01 4.5212424458018887e+00 1.3238325773371584e-01 2.2561459668624707e+01 0 0 -1
57 1 1 -2.0672395289881793e-01 1.2366061157424342e+01 1.7212311598513761e+00 4.7668451549471786e+00 0 0 0
58 1 2 9.6136884828624702e-02 1.1001369306679525e+01 1.2887737050104864e+00 4.5096862352506308e+00 0 0 0
59 1 3 2.1006794665248044e-01 1.0801866877195165e+01 2.3997698709930688e+00 4.5601728537091546e+00 0 0 0
60 1 3 2.2521499907286374e-01 1.0774794815430901e+01 6.8720237833827491e-01 5.4258698473503779e+00 0 0 0
61 1 2 8.7286692599800569e-02 -5.6013552434392910e-01 2.0960620805384895e+00 3.6463844500722327e+00 1 0 0
62 1 3 2.3578407247872046e-01 4.9520670238443376e-01 1.6853050045438498e+00 3.9497286264823614e+00 1 0 0
63 1 3 2.2702118152127360e-01 1.2549129908468563e+01 1.7804371213283994e+00 2.6758410868751730e+00 0 0 0
64 1 1 -1.5440806455816022e-01 1.2913341446219709e+01 1.3992972486925630e+00 6.0431915910262797e+00 0 0 0
65 1 2 3.6784870567703115e-01 1.1983767838222136e+01 1.3778111329964122e+00 7.2515764241250187e+00 0 0 0
66 1 4 -3.7086606307283931e-01 1.2520483648158249e+01 1.8098094590791929e+00 8.3218254336753503e+00 0 0 0
67 1 4 -3.8871158354481455e-01 1.0783949257030301e+01 9.8748239873638144e-01 7.0907414363163994e+00 0 0 0
68 1 2 3.8956460151307182e-01 5.6760787626405518e-01 1.3625126417561881e+00 6.2586488098240451e+00 1 0 0
69 1 4 -3.7340988733172703e-01 1.1233153779466276e+00 1.2231363462003655e+00 7.4176066005442403e+00 0 0 0
70 1 4 -3.4996432140854183e-01 1.3603672842097545e+00 1.5337018829368736e+00 5.2319685427996507e+00 0 0 0
71 1 1 -1.9689756710794709e-01 9.7880131133811350e+00 4.1545849134514370e+00 1.2465790063990491e+01 0 0 0
72 1 2 8.7563104335241310e-02 1.1134206550043553e+01 4.6867654036364081e+00 1.2706061751914064e+01 -1 0 0
73 1 3 2.2820301327887757e-01 1.1670861479624381e+01 3.8163606976563345e+00 1.3065536415134412e+01 -1 0 0
74 1 3 2.2636130037124358e-01 1.1304641290523954e+01 5.2185403092193470e+00 1.1725616588289137e+01 -1 0 0
75 1 2 1.0737296547765240e-01 8.9741674827875855e+00 3.7867476854112554e+00 1.3481798758501828e+01 0 0 0
76 1 3 2.4119016171902738e-01 7.9055606291271108e+00 3.4950934371836899e+00 1.2990988155475119e+01 0 0 0
77 1 3 2.3738426705922244e-01 9.5054520878796236e+00 3.9489792962361232e+00 1.4623218671276298e+01 0 0 0
78 1 1 -1.5137857001681063e-01 9.3302332554664122e+00 4.1322391196889390e+00 1.1117812242988931e+01 0 0 0
79 1 2 3.6841423466524725e-01 1.0276010582334104e+01 4.4473072627115977e+00 9.9505558780880143e+00 0 0 0
80 1 4 -3.5632432173722722e-01 9.8739458419155746e+00 4.0763181480538631e+00 8.8200804085119557e+00 0 0 0
81 1 4 -3.9499874515563532e-01 1.1307406406357646e+01 5.2116843898699710e+00 1.0146171718710525e+01 -1 0 0
82 1 2 3.6117132906131538e-01 7.8870092617111602e+00 4.0927752265425408e+00 1.0779109831388556e+01 0 0 0
83 1 4 -3.9517384024822694e-01 7.5911592654935758e+00 4.3020930840196412e+00 9.5194988720401792e+00 0 0 0
84 1 4 -3.9423703696441786e-01 7.0419808111779467e+00 3.7330955289858454e+00 1.1671998350725612e+01 0 0 0
85 1 1 -1.9290941780646353e-01 6.4756771831249118e+00 4.8633418512758846e+00 6.6881108057215046e+00 0 0 0
86 1 2 1.7586963254094046e-01 7.7919228593841190e+00 4.9110782687883567e+00 6.6818928447540333e+00 0 0 0
87 1 3 2.1451928292517608e-01 8.1062867288637346e+00 4.7931281925534659e+00 7.7271383602268529e+00 0 0 0
88 1 3 3.1027501503554022e-01 8.5320843306621388e+00 4.2326741237331156e+00 4.5581428464656399e+00 0 0 0
89 1 2 9.5725237947250741e-02 5.6885505795032740e+00 4.7422283156141631e+00 7.8853610798572342e+00 0 0 0
90 1 3 2.3150320884561870e-01 4.7200423526534623e+00 4.4173182210258979e+00 7.4478321659083866e+00 0 0 0
91 1 3 2.2015198236530359e-01 6.2121810682903638e+00 4.0833333181034588e+00 8.7547803386895602e+00 0 0 0
92 1 1 -1.4848000617448950e-01 5.7458426654333019e+00 4.9023684172615027e+00 5.3944956129514621e+00 0 0 0
93 1 2 3.4774244775433322e-01 6.5395695582248115e+00 5.0139864160743954e+00 4.3080480117465587e+00 0 0 0
94 1 4 -3.6626199804139059e-01 6.2203140374516641e+00 4.9925817190871582e+00 3.1426297574241504e+00 0 0 0
95 1 4 -4.2892779437206868e-01 8.1521534655476060e+00 5.0433515412387280e+00 4.7581248287457418e+00 0 0 0
96 1 2 3.8498863850987031e-01 4.1623304801882197e+00 4.7423922574097261e+00 5.2744511878365010e+00 0 0 0
97 1 4 -3.8109091760167602e-01 3.6831014318971134e+00 4.9341844767542424e+00 4.1273943152333654e+00 0 0 0
98 1 4 -3.5575171524335181e-01 3.5136282706267732e+00 4.4580191674904128e+00 6.3154197810809745e+00 0 0 0
99 1 1 -2.0576237353992602e-01 8.7529690649953835e+00 5.5811120977356521e-01 2.1850105057426269e+01 0 0 -1
100 1 2 7.2530102686694631e-02 7.4016669861292410e+00 5.9229206562679404e-01 2.1499895874677989e+01 0 0 -1
101 1 3 2.1243041510761454e-01 7.2995041346075960e+00 4.3233510341564196e-01 2.0396436156760529e+01 0 0 0
102 1 3 2.2634536517104950e-01 6.7088296234473113e+00 3.6063946116734247e-01 2.2366879464474138e+01 0 0 -1
103 1 2 9.1591112402120145e-02 9.7843846201525952e+00 6.2159686342520337e-01 2.0890097191927161e+01 0 0 0
104 1 3 2.3988070759948993e-01 1.0806625736181257e+01 1.8914505822877170e-01 2.1537221868014718e+01 0 0 0
105 1 3 2.1496882757850955e-01 9.2766818037645340e+00 5.6293692257862826e-01 1.9962638252862199e+01 0 0 0
106 1 1 -1.4593596863316849e-01 9.5891122148284325e+00 2.0451845655834084e+00 4.5284892887884659e-01 0 0 0
107 1 2 3.6687365411808032e-01 8.3903570988037472e+00 2.1640328853320581e+00 1.5540649932034498e+00 0 0 0
108 1 4 -3.5211398522185139e-01 8.8473318015704159e+00 2.4056094924572955e+00 2.6960222881253579e+00 0 0 0
109 1 4 -3.7822385748513621e-01 7.1831573460393514e+00 1.9026455335573342e+00 1.2645672986745105e+00 0 0 0
110 1 2 3.6180175728913699e-01 1.0924429703945522e+01 1.9912041120064030e+00 9.0106004286145125e-01 0 0 0
111 1 4 -3.7025768265075576e-01 1.1105427889140950e+01 2.1686843230404458e+00 2.1732686985905367e+00 0 0 0
112 1 4 -3.7974919704745269e-01 1.1955217112776912e+01 1.7650252363129397e+00 7.9543607298871485e-02 0 0 0
113 1 1 -1.9648888152717811e-01 3.5446845733690266e+00 8.1283010666754691e+00 4.7817883528637575e+00 0 0 0
114 1 2 9.5313698627778165e-02 2.1098951639696972e+00 8.2019970207582311e+00 4.5321716866879385e+00 0 0 0
115 1 3 1.9680961397249974e-01 2.0252449333803821e+00 9.1967965048894449e+00 4.0870029810638746e+00 0 0 0
116 1 3 2.5137414763238175e-01 1.5468401043038509e+00 7.7118679814364741e+00 5.3801179728288471e+00 0 0 0
117 1 2 7.8926746132919598e-02 4.3432927238051526e+00 8.2907607132487087e+00 3.7032935712472819e+00 0 0 0
118 1 3 2.2996683858446851e-01 5.4084106587048897e+00 8.1291675222335780e+00 4.0582106640229556e+00 0 0 0
119 1 3 2.1725629789632678e-01 3.7080321419390749e+00 8.2443173639624376e+00 2.5999428765861206e+00 0 0 0
120 1 1 -1.4235279404711929e-01 4.1298553614038180e+00 7.8539523967022777e+00 6.0294725999679581e+00 0 0 0
121 1 2 3.8103136504594659e-01 3.2105922837225709e+00 7.8108116858886323e+00 7.2508937854967703e+00 0 0 0
122 1 4 -3.4388209438568068e-01 3.7306067507917566e+00 7.8579673796071328e+00 8.3964188304136478e+00 0 0 0
123 1 4 -3.8180066152470005e-01 1.9386333697500024e+00 7.8211890818602363e+00 7.0303773540398273e+00 0 0 0
124 1 2 3.8074631617095489e-01 5.5919970677579656e+00 7.7289501715064048e+00 6.3074576866451348e+00 0 0 0
125 1 4 -3.7420690599779899e-01 5.9159959403918503e+00 7.6387234980706209e+00 7.5702421641597093e+00 0 0 0
126 1 4 -3.5932294616173677e-01 6.4099938177871874e+00 7.9381459592031556e+00 5.3659263803086112e+00 0 0 0
127 1 1 -1.9520924809810702e-01 1.1484843848048909e+00 1.0909626329315412e+01 1.2308612017132139e+01 0 0 0
128 1 2 9.4554798185225761e-02 2.5092360147664685e+00 1.0690860374433207e+01 1.2547421268321820e+01 0 0 0
129 1 3 2.3098974586933363e-01 2.7644727527500286e+00 1.0357141006033691e+01 1.3657985372367003e+01 0 0 0
130 1 3 2.4200007244455563e-01 3.2107241930707793e+00 1.0628735168915945e+01 1.1661468786565733e+01 0 0 0
131 1 2 8.8440839742429223e-02 1.7812201314461662e-01 1.0931402895850690e+01 1.3400697146681525e+01 0 0 0
132 1 3 2.2956622295156232e-01 -7.8081869499178236e-01 1.0808236093333369e+01 1.2755148062092491e+01 0 0 0
133 1 3 2.2019337558391822e-01 5.2990176471038963e-01 1.0169628399673751e+01 1.4075603971202456e+01 0 0 0
134 1 1 -1.4863753806183658e-01 7.6380324904870300e-01 1.1092701757766168e+01 1.0960246065450335e+01 0 0 0
135 1 2 3.5032948705358730e-01 1.7370729729866554e+00 1.1085359415956002e+01 9.8313833802960975e+00 0 0 0
136 1 4 -3.6205035534009777e-01 1.2085938411263148e+00 1.1278828403852637e+01 8.6650077210418406e+00 0 0 0
137 1 4 -3.9186830299649739e-01 2.9959528281271819e+00 1.0834279669003189e+01 9.9894668400913300e+00 0 0 0
138 1 2 3.7610181790831365e-01 -6.6055708439812710e-01 1.0874949532163733e+01 1.0519764382544482e+01 0 0 0
139 1 4 -3.7581733450761273e-01 -8.7003366757732070e-01 1.0876307959884134e+01 9.2510490796517288e+00 0 0 0
140 1 4 -3.6488110752735142e-01 -1.5694247073276157e+00 1.0696346892302497e+01 1.1385436342763287e+01 0 0 0
141 1 1 -1.9107889518920840e-01 -2.1902375672581469e+00 1.0921483609632990e+01 6.6747123685700593e+00 0 0 0
142 1 2 8.2085999629393155e-02 -7.4631236121318667e-01 1.0672094638621822e+01 6.6874621195988428e+00 0 0 0
143 1 3 2.1519168007091985e-01 -4.6666795846043180e-01 1.1465532885353770e+01 7.3584767261012560e+00 0 0 0
144 1 3 2.1323889183801301e-01 -5.3971526868331943e-01 1.0317868500740291e+01 5.6712480940428600e+00 0 0 0
145 1 2 9.3073856178570252e-02 -2.9493527340598060e+00 1.1007607405400330e+01 7.8360673009876036e+00 0 0 0
146 1 3 2.3346715145356872e-01 9.6679180215751952e+00 1.0899106274361499e+01 7.5288145100867716e+00 -1 0 0
147 1 3 2.2996657169275672e-01 -2.4096919944048723e+00 1.0516638109646509e+01 8.7486282097635577e+00 0 0 0
148 1 1 -1.5120529595830529e-01 -2.7833366820007068e+00 1.1134389277033481e+01 5.4251154932497849e+00 0 0 0
149 1 2 3.6521785900114057e-01 -1.9515511808698649e+00 1.1445389016474342e+01 4.1873729269300464e+00 0 0 0
150 1 4 -3.4571411888066594e-01 -2.5845167685738319e+00 1.1919048290794715e+01 3.1698859436114599e+00 0 0 0
151 1 4 -3.9984421020303013e-01 -6.7853991526634627e-01 1.1335976119726418e+01 4.2049081934376380e+00 0 0 0
152 1 2 3.7431896177050095e-01 9.5279329393944554e+00 1.0989329320000884e+01 5.1932160752278298e+00 -1 0 0
153 1 4 -3.7058297976636201e-01 9.1316116082037393e+00 1.0942987785658413e+01 3.9799514466231116e+00 0 0 0
154 1 4 -3.7033509271876813e-01 8.7713072181187002e+00 1.0847449063819392e+01 6.2216422805549927e+00 0 0 0
155 1 1 -1.9792669972236190e-01 1.4619429724915856e-01 6.4511700133977676e+00 2.1639504468573442e+01 0 0 -1
156 1 2 8.5438568689012118e-02 -1.1872324715501028e+00 6.0459690262504431e+00 2.1230072923116282e+01 1 0 -1
157 1 3 2.3823761876679161e-01 -1.5616224262375140e+00 6.7481327155812663e+00 2.0357148655485410e+01 1 0 0
158 1 3 2.3434632436529698e-01 -1.6282028048522836e+00 5.4596213694861602e+00 2.2080889365984774e+01 1 0 -1
159 1 2 1.0452898858568403e-01 1.0768858705894881e+00 6.6719894667397224e+00 2.0687128556662159e+01 0 0 0
160 1 3 2.3366990460106685e-01 2.0921825852660483e+00 7.0480471276562975e+00 2.1415624769451085e+01 0 0 0
161 1 3 2.2661300544356869e-01 6.3160382083210131e-01 6.3166360155213539e+00 1.9727828608295930e+01 0 0 0
162 1 1 -1.4554480419883070e-01 8.3773264992177965e-01 8.1933340790692490e+00 2.7308374550465486e-01 0 0 0
163 1 2 3.7686867943393754e-01 -4.0339076724338324e-01 8.1234843154182634e+00 1.2704259369061144e+00 0 0 0
164 1 4 -3.6383792743763732e-01 -2.1390463287320313e-01 8.6691709302782947e+00 2.3640149783642812e+00 0 0 0
165 1 4 -3.6651570332246741e-01 -1.4802304924835776e+00 7.5764744549252354e+00 8.2240688907505910e-01 1 0 0
166 1 2 3.5996101548916093e-01 2.1234587733586388e+00 8.3601479178889377e+00 8.2764149974396184e-01 0 0 0
167 1 4 -3.9144257727595744e-01 2.2365665125871650e+00 8.3227745882716064e+00 2.1376854549776545e+00 0 0 0
168 1 4 -3.8464650082508040e-01 3.1647744025830162e+00 8.5458066472887442e+00 3.3920961791927690e-02 0 0 0
169 1 1 -2.1465167073036112e-01 1.0578443520277135e+01 8.1332609859782981e+00 4.5067018347451446e+00 0 0 0
170 1 2 1.1001013955379786e-01 9.2284918845071804e+00 7.6657298299382495e+00 4.3851554003086832e+00 0 0 0
171 1 3 2.1122394104703521e-01 9.0535633547632663e+00 8.8351389354899297e+00 4.4609165977840668e+00 0 0 0
172 1 3 2.3527912474390048e-01 9.1895321068093256e+00 6.9665089607400734e+00 5.2901859486306826e+00 0 0 0
173 1 2 7.5704189512285275e-02 1.1277737174359341e+01 8.6055845689710182e+00 3.3087110606147538e+00 0 0 0
174 1 3 2.3723859875583037e-01 -1.4991542220587060e+00 8.6394339673562790e+00 3.6408875986014215e+00 1 0 0
175 1 3 2.2487642256046436e-01 1.0837447119507306e+01 8.0140268472521541e+00 2.4110190611318987e+00 0 0 0
176 1 1 -1.5367945967687704e-01 1.1210173611642613e+01 7.9203521031463264e+00 5.8131833018146626e+00 0 0 0
177 1 2 3.6891495110863554e-01 1.0307435449628134e+01 7.9157714012077554e+00 7.0082501698770283e+00 0 0 0
178 1 4 -3.5939782204965831e-01 1.0835748150716912e+01 8.3068777464593726e+00 8.0962084633460414e+00 0 0 0
179 1 4 -3.8747733482443480e-01 9.1552221488117489e+00 7.3325359517980964e+00 6.8990766845954505e+00 0 0 0
180 1 2 3.7825179652522994e-01 -1.1170057564917240e+00 7.9097547015234726e+00 5.9406725791028316e+00 1 0 0
181 1 4 -3.6513948423041243e-01 -5.9862723903497306e-01 7.7167617041356342e+00 7.1296161199141839e+00 0 0 0
182 1 4 -3.8067575778792462e-01 -4.3047009434892081e-01 8.2518249623590236e+00 4.9010003873581267e+00 0 0 0
183 1 1 -2.0334301486204689e-01 8.0517919428072009e+00 1.0719559588895892e+01 1.2337646343628249e+01 0 0 0
184 1 2 9.8677866997238961e-02 9.4397007986312644e+00 1.1094374612288581e+01 1.2557281093764649e+01 -1 0 0
185 1 3 2.1652683343892953e-01 9.5395817127171298e+00 9.9605017690770818e+00 1.2697034522089311e+01 -1 0 0
186 1 3 2.3334574459193405e-01 9.5606936801099334e+00 1.1748213110733968e+01 1.1624914907947783e+01 -1 0 0
187 1 2 8.6980358766085675e-02 7.1898895080991698e+00 1.0390175466921342e+01 1.3433365093571140e+01 0 0 0
188 1 3 2.3682124037175817e-01 6.1147359970305519e+00 1.0629554791021743e+01 1.3311236500269992e+01 0 0 0
189 1 3 2.2394405883856958e-01 7.8394730925443747e+00 1.0376042369269353e+01 1.4429663803876997e+01 0 0 0
190 1 1 -1.4741747453495652e-01 7.4895716149773657e+00 1.0831498441802182e+01 1.1028849456386650e+01 0 0 0
191 1 2 3.6992184120980992e-01 8.3668304512510616e+00 1.1068712246507717e+01 9.8559612063264641e+00 0 0 0
192 1 4 -3.8946989671648813e-01 9.6024320333261901e+00 1.1434667776148055e+01 1.0051705182376377e+01 0 0 0
193 1 4 -3.5338345237736973e-01 7.8358210810422522e+00 1.0714268454862486e+01 8.7483363290784961e+00 -1 0 0
194 1 2 3.8512138119512018e-01 5.9962788481502027e+00 1.0834033305714408e+01 1.0872676074239452e+01 0 0 0
195 1 4 -3.6643194427506026e-01 5.5258649198756231e+00 1.0936682173463090e+01 9.6798463333250648e+00 0 0 0
196 1 4 -3.7081640983398167e-01 5.2531155994343406e+00 1.0739057864749565e+01 1.1910256400920419e+01 0 0 0
197 1 1 -1.9937202541633534e-01 4.5248447285715301e+00 1.1342653684583336e+01 6.5782441525313784e+00 0 0 0
198 1 2 8.7655460100430155e-02 5.8731311348278137e+00 1.1460180297780855e+01 6.9977666052057135e+00 0 0 0
199 1 3 2.0561856663629002e-01 5.8015275424021446e+00 1.0981466872856643e+01 7.9614716972434412e+00 0 0 0
200 1 3 2.3737701179429735e-01 6.5610302366063999e+00 1.1157553185496512e+01 6.0245152413766387e+00 0 0 0
201 1 2 8.2586917973914514e-02 3.5366877272736521e+00 1.1157539770374180e+01 7.5085324166584018e+00 0 0 0
202 1 3 2.3079251054757630e-01 2.3864296600950472e+00 1.1047281616901408e+01 6.9835266083784617e+00 0 0 0
203 1 3 2.1484642971621626e-01 3.9246111064603402e+00 1.0961334061043733e+01 8.5308479726658746e+00 0 0 0
204 1 1 -1.4732564861670980e-01 4.1866285446164797e+00 1.1372244935416671e+01 5.1726681988471732e+00 0 0 0
205 1 2 3.7148971858357005e-01 5.3142208888087454e+00 1.1773621404613902e+01 4.2101820603742190e+00 0 0 0
206 1 4 -3.3750927118526447e-01 4.9908149196897345e+00 1.2114627670739711e+01 3.0516148163265888e+00 0 0 0
207 1 4 -3.8547728196166831e-01 6.5744533938197449e+00 1.1624983971313119e+01 4.5086391774611743e+00 0 0 0
208 1 2 3.5456215388641193e-01 2.8659806720002958e+00 1.1149374760605006e+01 4.6819341850453613e+00 0 0 0
209 1 4 -4.0227250508333290e-01 2.6560241867855132e+00 1.1087524494995954e+01 3.3641154474760446e+00 0 0 0
210 1 4 -4.0777417324285936e-01 1.8762862453875622e+00 1.1053871654633227e+01 5.5395340809436568e+00 0 0 0
211 1 1 -1.9953933353390560e-01 6.7229416264983772e+00 6.7564404899832873e+00 2.1762858426183143e+01 0 0 -1
212 1 2 8.8572230970700744e-02 5.3141608743271025e+00 6.7056677967362273e+00 2.1458150755728731e+01 0 0 -1
213 1 3 2.0572898742914084e-01 5.3453343653218122e+00 6.3062812760579643e+00 2.0427664955133181e+01 0 0 0
214 1 3 2.3244913199508815e-01 4.9442460720024224e+00 6.1649582260720575e+00 2.2431785665675250e+01 0 0 -1
215 1 2 8.0031752896700392e-02 7.7528787437901467e+00 6.8646766045585110e+00 2.0815321301825279e+01 0 0 0
216 1 3 2.2292437898922185e-01 8.7335412217024331e+00 7.2941946863293214e+00 2.1386377215766686e+01 0 0 0
217 1 3 2.0153859302999241e-01 7.2019008413206311e+00 7.2036654570233054e+00 1.9917252836723634e+01 0 0 0
218 1 1 -1.4569994884539900e-01 7.6084870069286499e+00 8.3011618508043004e+00 3.3726198935334334e-01 0 0 0
219 1 2 3.7387923665594880e-01 6.5854516604742894e+00 8.2993235753544514e+00 1.5033206148043772e+00 0 0 0
220 1 4 -3.3777846271626666e-01 7.0079371952486627e+00 8.6880444437058042e+00 2.6210862525929062e+00 0 0 0
221 1 4 -3.9292766445270833e-01 5.3973552392088733e+00 7.8642540617042513e+00 1.2311982833323898e+00 0 0 0
222 1 2 3.6847103121328395e-01 9.0165659465970496e+00 8.2151049885533478e+00 7.6752961482776683e-01 0 0 0
223 1 4 -3.6731574453677984e-01 9.2501663840696029e+00 7.9045457235255947e+00 1.9945377997122855e+00 0 0 0
224 1 4 -3.5863919309266135e-01 9.4855354724259939e+00 6.8404345021328146e+00 2.2666597766453009e+01 0 0 -1
225 1 1 -2.0186522346007729e-01 5.3933380155152815e+00 4.1963997074032289e-01 1.6068534020332294e+01 0 0 0
226 1 2 9.4860703470882782e-02 3.9479978368103685e+00 1.5726917943999796e-01 1.5823656805088641e+01 0 0 0
227 1 3 1.9628437937973015e-01 3.9137190553520975e+00 1.2590476122291407e+00 1.5783991080284949e+01 0 0 0
228 1 3 2.1919514697733378e-01 3.5450204540061034e+00 -3.4423305872478915e-01 1.6764839152921212e+01 0 0 0
229 1 2 1.0123539611638910e-01 6.1724010252266179e+00 6.1173842069697826e-01 1.4911674049237867e+01 0 0 0
230 1 3 2.4381492263508753e-01 7.2231354780244104e+00 5.7591537047301600e-01 1.5219780739386501e+01 0 0 0
231 1 3 2.3617073249810835e-01 5.4531113580650512e+00 9.6736044754865513e-01 1.3844753482948400e+01 0 0 0
232 1 1 -1.4787390710348308e-01 5.9487185841048635e+00 3.3201610519783498e-01 1.7361551073332208e+01 0 0 0
233 1 2 3.7120666486074527e-01 5.0263908300910884e+00 1.2900247553615163e-01 1.8539739337037290e+01 0 0 0
234 1 4 -3.6385240550379960e-01 5.5622358138794645e+00 3.1801802590891026e-01 1.9678890132760493e+01 0 0 0
235 1 4 -3.9910851018229360e-01 3.7848069712785257e+00 -2.0355657264903237e-01 1.8378291787542196e+01 0 0 0
236 1 2 3.8449257222634847e-01 7.4290195612517174e+00 3.6593070276042061e-01 1.7498375368611825e+01 0 0 0
237 1 4 -3.6776800423788897e-01 7.8652913366580055e+00 2.6222808108947260e-01 1.8713790658138755e+01 0 0 0
238 1 4 -3.6053927821473442e-01 8.2330655201429899e+00 5.1454740956919487e-01 1.6508373021144735e+01 0 0 0
239 1 1 -1.9525237000001933e-01 2.6970219494902925e+00 5.1690179882526346e+00 9.4498919047889463e-01 0 0 1
240 1 2 8.0352026040790975e-02 4.0604319150624297e+00 5.3639713618786971e+00 1.3587694351801773e+00 0 0 1
241 1 3 2.0045328737156806e-01 4.1500317408468783e+00 5.4651775226286938e+00 2.3990708865312280e+00 0 0 0
242 1 3 2.2446873368888265e-01 4.4747261208177784e+00 5.9142068776521102e+00 4.1291507237985292e-01 0 0 1
243 1 2 8.5891335297743426e-02 1.7044957495887185e+00 5.0633130296264257e+00 1.8772329059888029e+00 0 0 0
244 1 3 2.3058777736536384e-01 7.2021121769822949e-01 4.5470458689463795e+00 1.3400392516365145e+00 0 0 0
245 1 3 1.8293309469806898e-01 2.1477506874274463e+00 5.1310723030268415e+00 2.9060016959308337e+00 0 0 0
246 1 1 -1.4835668535630367e-01 1.9229230649875191e+00 3.4690493149543724e+00 2.2335433716013519e+01 0 0 0
247 1 2 3.7006453030235570e-01 3.0931964705391302e+00 3.5236523546763081e+00 2.1308848592231470e+01 0 0 0
248 1 4 -3.9114604574278722e-01 4.2312417350523788e+00 4.0417640733111373e+00 2.1573111171947872e+01 0 0 0
249 1 4 -3.4813907748671263e-01 2.8125247998197986e+00 3.0353419957230110e+00 2.0174648459006683e+01 0 0 0
250 1 2 3.6227167105000307e-01 5.6887538413273409e-01 3.2564994354254937e+00 2.1843978566890073e+01 0 0 0
251 1 4 -3.8697779084074563e-01 4.0776449677657078e-01 3.2583897859558881e+00 2.0562201298694390e+01 0 0 0
252 1 4 -3.7330812874772762e-01 -4.0138894300849376e-01 2.9677734494546222e+00 2.2646467854932389e+01 0 0 0
253 1 1 -2.0398165570804522e-01 -6.7191867141626704e-01 3.4633228917560537e+00 1.7985204885321934e+01 0 0 0
254 1 2 1.0249654694278798e-01 7.6311046546928207e-01 3.5002701875392699e+00 1.8191722113486833e+01 0 0 0
255 1 3 1.9790952878187373e-01 6.0753089577135011e-01 2.4255502835197911e+00 1.8336407363523016e+01 0 0 0
256 1 3 2.3095816517238585e-01 1.1943284062425816e+00 3.9602574798071339e+00 1.7311126718122793e+01 0 0 0
257 1 2 9.5096873180644512e-02 1.2150154326884795e+01 3.4626920110581394e+00 1.9040542890765984e+01 -1 0 0
258 1 3 2.3560187010752329e-01 1.1061196178596562e+01 3.6726344454941007e+00 1.8507939946055060e+01 -1 0 0
259 1 3 2.3826205694336217e-01 -1.0692823278870569e+00 3.0696402837620411e+00 2.0061252001851599e+01 0 0 0
260 1 1 -1.5464287599387530e-01 -1.1747154735635428e+00 3.6934267129505125e+00 1.6639058925571049e+01 0 0 0
261 1 2 3.7300912851933682e-01 -1.7453874465912106e-01 3.8715014218393660e+00 1.5482418897586806e+01 0 0 0
262 1 4 -3.4902302758925857e-01 -5.9776449075613147e-01 3.9015377497170887e+00 1.4293223019333787e+01 0 0 0
263 1 4 -3.9706665585867590e-01 1.0815218582834785e+00 3.9479100178756470e+00 1.5692146282334752e+01 0 0 0
264 1 2 3.7280875670269564e-01 1.1241625922970654e+01 3.8087888809953574e+00 1.6234125572243272e+01 -1 0 0
265 1 4 -3.8370611954153200e-01 1.1021462470819460e+01 3.9103978751208084e+00 1.4915059516687318e+01 0 0 0
266 1 4 -3.6169473892977161e-01 1.0340400871958863e+01 3.6455283855186740e+00 1.7132113387547300e+01 0 0 0
267 1 1 -1.9399737045972412e-01 1.9917813476670641e+00 1.0467683077417465e+00 1.0456016716570881e+01 0 0 0
268 1 2 9.2303059803147458e-02 6.6308290383607671e-01 1.0649699948142612e+00 1.0078668693826181e+01 1 0 0
269 1 3 2.2779794702132625e-01 5.0554593902207490e-01 1.0908310989828172e+00 8.8660494491024746e+00 1 0 0
270 1 3 2.3500449563796449e-01 -1.5639982823956677e-02 1.0591303907824678e+00 1.0984136213797946e+01 1 0 0
271 1 2 8.7173964148497179e-02 2.9842621286174862e+00 1.0035309686316147e+00 9.4992283629881893e+00 0 0 0
272 1 3 2.2884106800900478e-01 4.1022804413140221e+00 1.2525378311256183e+00 9.9672433918480845e+00 0 0 0
273 1 3 2.1064056517898447e-01 2.6284726462951196e+00 9.1876218841640844e-01 8.5343464019247577e+00 0 0 0
274 1 1 -1.5206042545174664e-01 2.3450250444088612e+00 1.0527935174025642e+00 1.1837752242467790e+01 0 0 0
275 1 2 3.5858358575579052e-01 1.2449710310928359e+00 9.6602962707877249e-01 1.2920287076183078e+01 0 0 0
276 1 4 -3.4691234238672036e-01 1.7228216320929599e+00 7.7820467769505430e-01 1.4085592617538971e+01 0 0 0
277 1 4 -3.8710309486566752e-01 -1.5962707710528823e-02 9.1492723421688782e-01 1.2689528347728958e+01 1 0 0
278 1 2 3.5654756096386270e-01 3.7242037287208323e+00 1.0220817477937365e+00 1.2221727030864658e+01 0 0 0