ITEM: TIMESTEP
0
ITEM: NUMBER OF ATOMS
576
ITEM: BOX BOUNDS xy xz yz pp pp pp
-3.8734541101000000e+00 1.7704000473000001e+01 0.0000000000000000e+00
0.0000000000000000e+00 2.5111999511699999e+01 -3.8734541101000000e+00
0.0000000000000000e+00 1.2813326682700000e+01 0.0000000000000000e+00
ITEM: ATOMS id type xs ys zs
1 1 0.22376 0.315804 0.868584
2 1 0.77624 0.684197 0.131416
3 1 0.0262398 0.565803 0.631416
4 1 0.47376 0.934196 0.368584
5 1 0.22376 0.815804 0.868584
6 1 0.77624 0.184197 0.131416
7 1 0.0262397 0.0658035 0.631416
8 1 0.47376 0.434197 0.368584
9 1 0.72376 0.315804 0.868584
10 1 0.27624 0.684197 0.131416
11 1 0.52624 0.565804 0.631416
12 1 0.97376 0.934196 0.368584
13 1 0.72376 0.815803 0.868584
14 1 0.27624 0.184197 0.131416
15 1 0.52624 0.0658034 0.631416
16 1 0.97376 0.434197 0.368584
17 1 0.156666 0.318181 0.682864
18 1 0.843334 0.681819 0.317136
19 1 0.093334 0.568181 0.817136
20 1 0.406666 0.931819 0.182864
21 1 0.156666 0.81818 0.682865
22 1 0.843334 0.181819 0.317136
23 1 0.093334 0.0681811 0.817136
24 1 0.406666 0.431819 0.182864
25 1 0.656666 0.318182 0.682864
26 1 0.343334 0.681819 0.317136
27 1 0.593334 0.568181 0.817136
28 1 0.906666 0.931819 0.182864
29 1 0.656666 0.818181 0.682864
30 1 0.343334 0.181819 0.317136
31 1 0.593334 0.0681816 0.817136
32 1 0.906666 0.431819 0.182864
33 1 0.277617 0.256624 0.694105
34 1 0.722383 0.743376 0.305895
35 1 0.972383 0.506624 0.805895
36 1 0.527617 0.993376 0.194105
37 1 0.277617 0.756624 0.694105
38 1 0.722383 0.243376 0.305895
39 1 0.972383 0.00662405 0.805895
40 1 0.527618 0.493376 0.194105
41 1 0.777617 0.256624 0.694105
42 1 0.222382 0.743376 0.305895
43 1 0.472383 0.506624 0.805895
44 1 0.0276172 0.993376 0.194105
45 1 0.777617 0.756624 0.694105
46 1 0.222383 0.243376 0.305895
47 1 0.472382 0.00662416 0.805895
48 1 0.0276175 0.493376 0.194105
49 1 0.296748 0.278972 0.87639
50 1 0.703252 0.721028 0.12361
51 1 0.953252 0.528972 0.62361
52 1 0.546749 0.971028 0.37639
53 1 0.296749 0.778972 0.87639
54 1 0.703252 0.221028 0.12361
55 1 0.953251 0.0289721 0.62361
56 1 0.546748 0.471028 0.37639
57 1 0.796749 0.278972 0.876391
58 1 0.203252 0.721028 0.12361
59 1 0.453251 0.528972 0.62361
60 1 0.0467486 0.971028 0.37639
61 1 0.796748 0.778972 0.87639
62 1 0.203252 0.221028 0.12361
63 1 0.453252 0.0289723 0.62361
64 1 0.0467485 0.471028 0.37639
65 1 0.333155 0.307396 0.721469
66 1 0.666845 0.692604 0.278531
67 1 0.916845 0.557396 0.778531
68 1 0.583155 0.942604 0.221469
69 1 0.333156 0.807396 0.721469
70 1 0.666845 0.192604 0.278531
71 1 0.916845 0.057396 0.77853
72 1 0.583155 0.442604 0.221469
73 1 0.833155 0.307396 0.721469
74 1 0.166845 0.692604 0.278531
75 1 0.416845 0.557396 0.778531
76 1 0.0831551 0.942604 0.221469
77 1 0.833155 0.807396 0.721469
78 1 0.166845 0.192604 0.278531
79 1 0.416845 0.0573961 0.778531
80 1 0.083155 0.442604 0.221469
81 1 0.214021 0.367387 0.711782
82 1 0.785978 0.632614 0.288217
83 1 0.0359782 0.617387 0.788217
84 1 0.464022 0.882613 0.211783
85 1 0.21402 0.867387 0.711781
86 1 0.785978 0.132614 0.288217
87 1 0.0359783 0.117387 0.788217
88 1 0.464022 0.382614 0.211783
89 1 0.714022 0.367386 0.711783
90 1 0.285978 0.632614 0.288217
91 1 0.535978 0.617387 0.788217
92 1 0.964022 0.882613 0.211783
93 1 0.714022 0.867387 0.711783
94 1 0.285978 0.132614 0.288217
95 1 0.535978 0.117386 0.788217
96 1 0.964022 0.382614 0.211783
97 2 0.209869 0.32056 0.942919
98 2 0.790131 0.67944 0.0570812
99 2 0.0401307 0.57056 0.557081
100 2 0.459869 0.92944 0.442919
101 2 0.209869 0.82056 0.942919
102 2 0.790131 0.17944 0.0570812
103 2 0.0401306 0.0705598 0.557081
104 2 0.459869 0.42944 0.442919
105 2 0.709869 0.32056 0.942919
106 2 0.290131 0.67944 0.0570812
107 2 0.540131 0.57056 0.557081
108 2 0.959869 0.92944 0.442919
109 2 0.709869 0.82056 0.942919
110 2 0.290131 0.17944 0.0570812
111 2 0.540131 0.0705598 0.557081
112 2 0.959869 0.42944 0.442919
113 2 0.098404 0.328532 0.629537
114 2 0.901596 0.671468 0.370463
115 2 0.151596 0.578532 0.870463
116 2 0.348404 0.921468 0.129537
117 2 0.098404 0.828532 0.629537
118 2 0.901596 0.171468 0.370463
119 2 0.151596 0.0785319 0.870463
120 2 0.348404 0.421468 0.129537
121 2 0.598404 0.328532 0.629537
122 2 0.401596 0.671468 0.370463
123 2 0.651596 0.578532 0.870463
124 2 0.848404 0.921468 0.129537
125 2 0.598404 0.828532 0.629537
126 2 0.401596 0.171468 0.370463
127 2 0.651596 0.0785318 0.870463
128 2 0.848404 0.421468 0.129537
129 2 0.295949 0.22777 0.643881
130 2 0.704051 0.77223 0.356119
131 2 0.954051 0.47777 0.856119
132 2 0.545949 0.0222305 0.143881
133 2 0.295949 0.72777 0.643881
134 2 0.704051 0.27223 0.356119
135 2 0.954051 0.97777 0.856119
136 2 0.545949 0.52223 0.143881
137 2 0.795949 0.22777 0.643881
138 2 0.204051 0.77223 0.356119
139 2 0.454051 0.47777 0.856119
140 2 0.0459492 0.0222305 0.143881
141 2 0.795949 0.72777 0.643881
142 2 0.204051 0.27223 0.356119
143 2 0.454051 0.97777 0.856119
144 2 0.0459492 0.52223 0.143881
145 2 0.319868 0.264573 0.956864
146 2 0.680132 0.735427 0.0431358
147 2 0.930132 0.514573 0.543136
148 2 0.569868 0.985427 0.456864
149 2 0.319868 0.764573 0.956864
150 2 0.680132 0.235427 0.0431358
151 2 0.930132 0.014573 0.543136
152 2 0.569868 0.485427 0.456864
153 2 0.819868 0.264573 0.956864
154 2 0.180132 0.735427 0.0431358
155 2 0.430132 0.514573 0.543136
156 2 0.0698684 0.985427 0.456864
157 2 0.819868 0.764573 0.956864
158 2 0.180132 0.235427 0.0431358
159 2 0.430132 0.0145731 0.543136
160 2 0.0698683 0.485427 0.456864
161 2 0.38375 0.306307 0.689279
162 2 0.61625 0.693693 0.310721
163 2 0.86625 0.556307 0.810721
164 2 0.63375 0.943693 0.189279
165 2 0.383749 0.806307 0.689279
166 2 0.61625 0.193693 0.310721
167 2 0.86625 0.056307 0.810721
168 2 0.63375 0.443693 0.189279
169 2 0.88375 0.306307 0.689279
170 2 0.11625 0.693693 0.310721
171 2 0.36625 0.556307 0.810721
172 2 0.13375 0.943693 0.189279
173 2 0.88375 0.806307 0.689279
174 2 0.11625 0.193693 0.310721
175 2 0.36625 0.056307 0.810721
176 2 0.13375 0.443693 0.189279
177 2 0.186593 0.405154 0.678071
178 2 0.813407 0.594846 0.321929
179 2 0.0634071 0.655154 0.821929
180 2 0.436593 0.844846 0.178071
181 2 0.186593 0.905154 0.678071
182 2 0.813407 0.0948463 0.321929
183 2 0.0634071 0.155154 0.821929
184 2 0.436593 0.344846 0.178071
185 2 0.686593 0.405154 0.678071
186 2 0.313407 0.594846 0.321929
187 2 0.563407 0.655154 0.821929
188 2 0.936593 0.844846 0.178071
189 2 0.686593 0.905154 0.678071
190 2 0.313407 0.0948463 0.321929
191 2 0.563407 0.155154 0.821929
192 2 0.936593 0.344846 0.178071
193 3 0.150714 0.295362 0.78685
194 3 0.849286 0.704638 0.213149
195 3 0.0992863 0.545362 0.71315
196 3 0.400714 0.954638 0.28685
197 3 0.150714 0.795362 0.786849
198 3 0.849286 0.204638 0.213149
199 3 0.0992862 0.0453622 0.71315
200 3 0.400714 0.454638 0.286851
201 3 0.650714 0.295362 0.786851
202 3 0.349286 0.704638 0.213149
203 3 0.599286 0.545362 0.71315
204 3 0.900714 0.954638 0.28685
205 3 0.650714 0.795362 0.78685
206 3 0.349286 0.204638 0.213149
207 3 0.599286 0.0453621 0.713149
208 3 0.900714 0.454638 0.286851
209 3 0.0704154 0.304527 0.80627
210 3 0.929584 0.695473 0.19373
211 3 0.179585 0.554527 0.69373
212 3 0.320415 0.945473 0.30627
213 3 0.0704155 0.804527 0.80627
214 3 0.929584 0.195473 0.19373
215 3 0.179584 0.0545267 0.69373
216 3 0.320416 0.445473 0.30627
217 3 0.570415 0.304527 0.80627
218 3 0.429584 0.695473 0.19373
219 3 0.679585 0.554527 0.69373
220 3 0.820415 0.945473 0.30627
221 3 0.570416 0.804527 0.80627
222 3 0.429584 0.195473 0.19373
223 3 0.679584 0.0545267 0.69373
224 3 0.820416 0.445473 0.30627
225 3 0.194373 0.274369 0.636007
226 3 0.805627 0.725631 0.363993
227 3 0.0556266 0.524369 0.863993
228 3 0.444373 0.975631 0.136007
229 3 0.194373 0.77437 0.636007
230 3 0.805627 0.225631 0.363993
231 3 0.0556268 0.0243694 0.863993
232 3 0.444373 0.475631 0.136007
233 3 0.694374 0.274369 0.636007
234 3 0.305627 0.725631 0.363993
235 3 0.555626 0.524369 0.863993
236 3 0.944373 0.975631 0.136007
237 3 0.694373 0.774369 0.636007
238 3 0.305627 0.225631 0.363993
239 3 0.555627 0.024369 0.863993
240 3 0.944373 0.475631 0.136007
241 3 0.151734 0.25284 0.527864
242 3 0.848267 0.747161 0.472137
243 3 0.0982665 0.502839 0.972136
244 3 0.401734 0.99716 0.0278644
245 3 0.151733 0.752839 0.527863
246 3 0.848267 0.247161 0.472136
247 3 0.0982668 0.0028394 0.972137
248 3 0.401733 0.497161 0.0278634
249 3 0.651734 0.25284 0.527865
250 3 0.348267 0.747161 0.472137
251 3 0.598266 0.50284 0.972136
252 3 0.901734 0.99716 0.0278644
253 3 0.651733 0.752839 0.527863
254 3 0.348267 0.247161 0.472137
255 3 0.598267 0.00283942 0.972136
256 3 0.901733 0.497161 0.0278635
257 3 0.284228 0.232259 0.800172
258 3 0.715772 0.767741 0.199827
259 3 0.965772 0.482259 0.699827
260 3 0.534228 0.0177409 0.300172
261 3 0.284227 0.732259 0.800172
262 3 0.715772 0.267741 0.199827
263 3 0.965773 0.982259 0.699828
264 3 0.534228 0.517741 0.300173
265 3 0.784228 0.232259 0.800172
266 3 0.215772 0.767741 0.199827
267 3 0.465772 0.482259 0.699828
268 3 0.0342276 0.0177409 0.300172
269 3 0.784228 0.732259 0.800173
270 3 0.215772 0.267741 0.199827
271 3 0.465772 0.982259 0.699827
272 3 0.0342276 0.517741 0.300173
273 3 0.220372 0.193074 0.806283
274 3 0.779629 0.806927 0.193717
275 3 0.0296285 0.443074 0.693717
276 3 0.470372 0.0569261 0.306283
277 3 0.220371 0.693073 0.806283
278 3 0.779629 0.306927 0.193717
279 3 0.0296289 0.943073 0.693717
280 3 0.470371 0.556927 0.306283
281 3 0.720372 0.193074 0.806283
282 3 0.279629 0.806927 0.193717
283 3 0.529628 0.443074 0.693717
284 3 0.970372 0.0569261 0.306283
285 3 0.720371 0.693073 0.806283
286 3 0.279629 0.306927 0.193717
287 3 0.529629 0.943073 0.693717
288 3 0.970371 0.556927 0.306283
289 3 0.3623 0.304996 0.83904
290 3 0.6377 0.695004 0.160961
291 3 0.8877 0.554996 0.66096
292 3 0.6123 0.945004 0.33904
293 3 0.3623 0.804995 0.83904
294 3 0.6377 0.195004 0.160961
295 3 0.8877 0.0549954 0.66096
296 3 0.612299 0.445004 0.339039
297 3 0.8623 0.304996 0.83904
298 3 0.1377 0.695004 0.160961
299 3 0.3877 0.554996 0.66096
300 3 0.1123 0.945004 0.33904
301 3 0.8623 0.804996 0.839039
302 3 0.1377 0.195004 0.160961
303 3 0.3877 0.0549959 0.660961
304 3 0.1123 0.445004 0.339039
305 3 0.399166 0.35379 0.90039
306 3 0.600834 0.64621 0.09961
307 3 0.850834 0.60379 0.59961
308 3 0.649166 0.89621 0.40039
309 3 0.399166 0.853789 0.90039
310 3 0.600834 0.14621 0.0996101
311 3 0.850834 0.103789 0.59961
312 3 0.649166 0.39621 0.40039
313 3 0.899166 0.35379 0.90039
314 3 0.100834 0.64621 0.09961
315 3 0.350834 0.60379 0.59961
316 3 0.149166 0.89621 0.40039
317 3 0.899166 0.85379 0.90039
318 3 0.100834 0.14621 0.09961
319 3 0.350834 0.10379 0.59961
320 3 0.149166 0.39621 0.40039
321 3 0.28406 0.355642 0.671085
322 3 0.71594 0.644358 0.328914
323 3 0.96594 0.605642 0.828914
324 3 0.53406 0.894358 0.171086
325 3 0.284061 0.855641 0.671086
326 3 0.71594 0.144358 0.328914
327 3 0.96594 0.105642 0.828914
328 3 0.534059 0.394358 0.171086
329 3 0.784059 0.355642 0.671086
330 3 0.21594 0.644358 0.328914
331 3 0.46594 0.605642 0.828914
332 3 0.0340599 0.894358 0.171086
333 3 0.78406 0.855642 0.671086
334 3 0.21594 0.144358 0.328914
335 3 0.465941 0.105642 0.828914
336 3 0.0340596 0.394358 0.171086
337 3 0.328083 0.403717 0.644402
338 3 0.671917 0.596283 0.355598
339 3 0.921917 0.653717 0.855598
340 3 0.578083 0.846283 0.144402
341 3 0.328083 0.903717 0.644402
342 3 0.671917 0.0962832 0.355598
343 3 0.921917 0.153717 0.855598
344 3 0.578083 0.346283 0.144402
345 3 0.828083 0.403717 0.644402
346 3 0.171917 0.596283 0.355598
347 3 0.421917 0.653717 0.855598
348 3 0.0780833 0.846283 0.144402
349 3 0.828083 0.903717 0.644402
350 3 0.171917 0.0962832 0.355598
351 3 0.421917 0.153717 0.855598
352 3 0.0780832 0.346283 0.144402
353 3 0.240254 0.370639 0.83112
354 3 0.759746 0.629361 0.168881
355 3 0.00974598 0.620639 0.66888
356 3 0.490254 0.879361 0.33112
357 3 0.240254 0.870638 0.831121
358 3 0.759746 0.129361 0.168881
359 3 0.00974591 0.120639 0.66888
360 3 0.490254 0.379361 0.331119
361 3 0.740254 0.370639 0.831119
362 3 0.259746 0.629361 0.168881
363 3 0.509746 0.620639 0.66888
364 3 0.990254 0.879361 0.33112
365 3 0.740254 0.870639 0.831119
366 3 0.259746 0.129361 0.168881
367 3 0.509746 0.120639 0.668881
368 3 0.990254 0.379361 0.331119
369 3 0.20647 0.418237 0.875386
370 3 0.79353 0.581763 0.124614
371 3 0.0435304 0.668237 0.624614
372 3 0.45647 0.831763 0.375386
373 3 0.20647 0.918237 0.875386
374 3 0.79353 0.0817626 0.124614
375 3 0.0435304 0.168237 0.624614
376 3 0.45647 0.331763 0.375386
377 3 0.70647 0.418237 0.875386
378 3 0.29353 0.581763 0.124614
379 3 0.54353 0.668237 0.624614
380 3 0.95647 0.831763 0.375386
381 3 0.70647 0.918237 0.875386
382 3 0.29353 0.0817626 0.124614
383 3 0.54353 0.168237 0.624614
384 3 0.95647 0.331763 0.375386
385 4 0.00895178 0.308724 0.728141
386 4 0.991048 0.691276 0.271859
387 4 0.241048 0.558724 0.771859
388 4 0.258952 0.941276 0.228141
389 4 0.00895192 0.808724 0.728141
390 4 0.991048 0.191276 0.271859
391 4 0.241048 0.0587238 0.771859
392 4 0.258952 0.441276 0.228141
393 4 0.508952 0.308724 0.728141
394 4 0.491048 0.691276 0.271859
395 4 0.741048 0.558724 0.771859
396 4 0.758952 0.941276 0.228141
397 4 0.508952 0.808724 0.728141
398 4 0.491048 0.191276 0.271859
399 4 0.741048 0.0587238 0.771859
400 4 0.758952 0.441276 0.228141
401 4 0.0662812 0.299111 0.899255
402 4 0.933719 0.700889 0.100745
403 4 0.183719 0.549111 0.600745
404 4 0.316281 0.950889 0.399255
405 4 0.0662813 0.799111 0.899255
406 4 0.933719 0.200889 0.100745
407 4 0.183719 0.0491111 0.600745
408 4 0.316281 0.450889 0.399255
409 4 0.566281 0.299111 0.899255
410 4 0.433719 0.700889 0.100745
411 4 0.683719 0.549111 0.600745
412 4 0.816281 0.950889 0.399255
413 4 0.566281 0.799111 0.899255
414 4 0.433719 0.200889 0.100745
415 4 0.683719 0.0491111 0.600745
416 4 0.816281 0.450889 0.399255
417 4 0.183397 0.214311 0.492843
418 4 0.816603 0.785689 0.507157
419 4 0.0666027 0.464311 0.00715734
420 4 0.433397 0.0356895 0.992842
421 4 0.183397 0.714311 0.492843
422 4 0.816603 0.285689 0.507157
423 4 0.066603 0.964311 0.00715709
424 4 0.433397 0.535689 0.992843
425 4 0.683398 0.21431 0.492842
426 4 0.316603 0.785689 0.507157
427 4 0.566603 0.464311 0.00715757
428 4 0.933397 0.0356895 0.992842
429 4 0.683397 0.714311 0.492843
430 4 0.316603 0.285689 0.507157
431 4 0.566603 0.964311 0.00715721
432 4 0.933397 0.535689 0.992843
433 4 0.0883635 0.275375 0.475136
434 4 0.911636 0.724625 0.524864
435 4 0.161636 0.525375 0.0248641
436 4 0.338363 0.974625 0.975135
437 4 0.0883646 0.775374 0.475137
438 4 0.911636 0.224625 0.524864
439 4 0.161636 0.0253744 0.0248639
440 4 0.338364 0.474625 0.975136
441 4 0.588363 0.275375 0.475135
442 4 0.411636 0.724625 0.524864
443 4 0.661637 0.525375 0.0248644
444 4 0.838363 0.974625 0.975135
445 4 0.588364 0.775375 0.475136
446 4 0.411636 0.224625 0.524864
447 4 0.661636 0.0253745 0.0248639
448 4 0.838364 0.474625 0.975136
449 4 0.190872 0.162761 0.728417
450 4 0.809128 0.837239 0.271582
451 4 0.0591278 0.412761 0.771583
452 4 0.440872 0.0872393 0.228416
453 4 0.190873 0.662761 0.728418
454 4 0.809128 0.337239 0.271582
455 4 0.0591275 0.912761 0.771582
456 4 0.440872 0.587239 0.228418
457 4 0.690872 0.162761 0.728416
458 4 0.309128 0.837239 0.271582
459 4 0.559128 0.412761 0.771583
460 4 0.940872 0.0872393 0.228416
461 4 0.690872 0.662761 0.728418
462 4 0.309128 0.337239 0.271582
463 4 0.559128 0.912761 0.771582
464 4 0.940872 0.587239 0.228418
465 4 0.20263 0.189263 0.891799
466 4 0.797369 0.810737 0.108202
467 4 0.0473696 0.439263 0.608201
468 4 0.45263 0.0607368 0.3918
469 4 0.202631 0.689263 0.891798
470 4 0.797369 0.310737 0.108202
471 4 0.0473694 0.939263 0.608202
472 4 0.452631 0.560737 0.391798
473 4 0.70263 0.189263 0.8918
474 4 0.297369 0.810737 0.108202
475 4 0.54737 0.439263 0.608201
476 4 0.95263 0.0607368 0.3918
477 4 0.702631 0.689263 0.891798
478 4 0.297369 0.310737 0.108202
479 4 0.547369 0.939263 0.608202
480 4 0.952631 0.560737 0.391798
481 4 0.429284 0.389551 0.85596
482 4 0.570716 0.610449 0.14404
483 4 0.820716 0.639551 0.64404
484 4 0.679284 0.860449 0.35596
485 4 0.429283 0.889552 0.855959
486 4 0.570716 0.110449 0.14404
487 4 0.820717 0.139552 0.644041
488 4 0.679284 0.360449 0.35596
489 4 0.929284 0.389551 0.85596
490 4 0.0707162 0.610449 0.14404
491 4 0.320716 0.639551 0.64404
492 4 0.179284 0.860449 0.35596
493 4 0.929284 0.889551 0.85596
494 4 0.0707162 0.110449 0.14404
495 4 0.320716 0.139551 0.64404
496 4 0.179284 0.360449 0.35596
497 4 0.40015 0.357072 0.996054
498 4 0.59985 0.642928 0.00394564
499 4 0.84985 0.607072 0.503946
500 4 0.65015 0.892928 0.496054
501 4 0.40015 0.857073 0.996055
502 4 0.59985 0.142928 0.00394561
503 4 0.84985 0.107073 0.503945
504 4 0.65015 0.392928 0.496054
505 4 0.90015 0.357072 0.996054
506 4 0.0998504 0.642928 0.00394565
507 4 0.34985 0.607072 0.503946
508 4 0.15015 0.892928 0.496054
509 4 0.90015 0.857072 0.996054
510 4 0.0998504 0.142928 0.00394561
511 4 0.34985 0.107072 0.503946
512 4 0.15015 0.392928 0.496054
513 4 0.299234 0.450399 0.644307
514 4 0.700766 0.549601 0.355693
515 4 0.950766 0.700399 0.855693
516 4 0.549234 0.799601 0.144307
517 4 0.299234 0.9504 0.644307
518 4 0.700766 0.0496008 0.355693
519 4 0.950766 0.200399 0.855693
520 4 0.549234 0.299601 0.144307
521 4 0.799234 0.450399 0.644307
522 4 0.200766 0.549601 0.355693
523 4 0.450766 0.700399 0.855693
524 4 0.049234 0.799601 0.144307
525 4 0.799234 0.950399 0.644307
526 4 0.200766 0.0496008 0.355693
527 4 0.450766 0.200399 0.855693
528 4 0.0492339 0.299601 0.144307
529 4 0.389626 0.395329 0.615004
530 4 0.610373 0.604671 0.384996
531 4 0.860374 0.645329 0.884996
532 4 0.639626 0.854671 0.115004
533 4 0.389627 0.895329 0.615003
534 4 0.610373 0.104671 0.384996
535 4 0.860373 0.145329 0.884996
536 4 0.639627 0.354671 0.115004
537 4 0.889626 0.395329 0.615004
538 4 0.110373 0.604671 0.384996
539 4 0.360374 0.645329 0.884996
540 4 0.139626 0.854671 0.115004
541 4 0.889627 0.895329 0.615004
542 4 0.110373 0.104671 0.384996
543 4 0.360374 0.145329 0.884996
544 4 0.139627 0.354671 0.115004
545 4 0.195533 0.461959 0.824363
546 4 0.804467 0.538041 0.175637
547 4 0.0544673 0.711959 0.675637
548 4 0.445533 0.788041 0.324363
549 4 0.195533 0.961959 0.824363
550 4 0.804467 0.038041 0.175637
551 4 0.0544673 0.211959 0.675637
552 4 0.445533 0.288041 0.324363
553 4 0.695533 0.461959 0.824363
554 4 0.304467 0.538041 0.175637
555 4 0.554467 0.711959 0.675637
556 4 0.945533 0.788041 0.324363
557 4 0.695533 0.961959 0.824363
558 4 0.304467 0.038041 0.175637
559 4 0.554467 0.211959 0.675637
560 4 0.945533 0.288041 0.324363
561 4 0.197743 0.414314 0.96647
562 4 0.802257 0.585686 0.0335304
563 4 0.0522574 0.664314 0.53353
564 4 0.447743 0.835686 0.46647
565 4 0.197743 0.914314 0.96647
566 4 0.802257 0.0856856 0.0335303
567 4 0.0522574 0.164314 0.53353
568 4 0.447743 0.335686 0.46647
569 4 0.697743 0.414314 0.96647
570 4 0.302257 0.585686 0.0335304
571 4 0.552257 0.664314 0.53353
572 4 0.947743 0.835686 0.46647
573 4 0.697743 0.914314 0.96647
574 4 0.302257 0.0856856 0.0335304
575 4 0.552257 0.164314 0.53353
576 4 0.947743 0.335686 0.46647
ITEM: TIMESTEP
1000
ITEM: NUMBER OF ATOMS
576
ITEM: BOX BOUNDS xy xz yz pp pp pp
-5.0761697915772848e+00 1.8387489369631226e+01 -2.1849309479755308e-01
-2.9204669416223045e-01 2.5339854271417920e+01 -4.1741878001485135e+00
-7.1633049514925329e-01 1.3529657177849224e+01 -6.4191934444254140e-02
ITEM: ATOMS id type xs ys zs
1 1 0.227492 0.324198 0.866827
2 1 0.767353 0.673725 0.145945
3 1 0.994801 0.575529 0.634975
4 1 0.477044 0.9179 0.363911
5 1 0.234104 0.824591 0.871406
6 1 0.766346 0.173701 0.131792
7 1 0.01467 0.0829282 0.618441
8 1 0.49625 0.428894 0.349509
9 1 0.717095 0.32026 0.852797
10 1 0.236999 0.674925 0.135859
11 1 0.527994 0.576266 0.628316
12 1 0.984392 0.935313 0.355388
13 1 0.757902 0.820575 0.884192
14 1 0.275629 0.172914 0.149761
15 1 0.505885 0.0627346 0.620919
16 1 0.00672608 0.42209 0.378404
17 1 0.156918 0.299321 0.711904
18 1 0.842809 0.698636 0.307886
19 1 0.0839222 0.554835 0.781584
20 1 0.401608 0.936665 0.204012
21 1 0.16187 0.797661 0.716557
22 1 0.845491 0.197884 0.2792
23 1 0.0947462 0.0646908 0.774929
24 1 0.406858 0.450297 0.19814
25 1 0.643576 0.295342 0.69464
26 1 0.334831 0.691918 0.279336
27 1 0.601039 0.552979 0.787493
28 1 0.896601 0.947269 0.200974
29 1 0.676099 0.801987 0.730408
30 1 0.352978 0.193686 0.304032
31 1 0.584709 0.0486321 0.780791
32 1 0.919594 0.436221 0.222273
33 1 0.268511 0.245469 0.723605
34 1 0.723843 0.745829 0.29812
35 1 0.975506 0.501814 0.797449
36 1 0.523917 0.98737 0.209026
37 1 0.273422 0.751034 0.725208
38 1 0.729453 0.246367 0.274783
39 1 0.987021 0.00337086 0.765218
40 1 0.516018 0.502115 0.186558
41 1 0.756918 0.240347 0.717802
42 1 0.234771 0.752173 0.296799
43 1 0.484134 0.499077 0.760889
44 1 0.00768193 0.00549081 0.19779
45 1 0.790921 0.7533 0.736365
46 1 0.243046 0.247522 0.295469
47 1 0.473072 0.996563 0.780045
48 1 0.0238186 0.496552 0.218101
49 1 0.297601 0.292568 0.877801
50 1 0.698554 0.705629 0.144968
51 1 0.929756 0.543345 0.64807
52 1 0.547404 0.949997 0.366322
53 1 0.30458 0.795053 0.87432
54 1 0.693361 0.201986 0.121991
55 1 0.949223 0.0463202 0.614703
56 1 0.562167 0.460096 0.337304
57 1 0.787893 0.288143 0.862718
58 1 0.17576 0.70998 0.149435
59 1 0.455455 0.544609 0.616062
60 1 0.0551891 0.968469 0.354134
61 1 0.827856 0.791301 0.882932
62 1 0.20472 0.205394 0.142908
63 1 0.436496 0.0325074 0.620569
64 1 0.0702608 0.461068 0.377124
65 1 0.309323 0.295788 0.716317
66 1 0.689286 0.69299 0.306189
67 1 0.938363 0.552625 0.811395
68 1 0.557817 0.935707 0.202114
69 1 0.307972 0.80134 0.709441
70 1 0.691929 0.196215 0.287112
71 1 0.94123 0.0491187 0.775992
72 1 0.549158 0.449341 0.173679
73 1 0.800134 0.289575 0.710022
74 1 0.194979 0.704564 0.315583
75 1 0.447408 0.549233 0.776697
76 1 0.0473333 0.95651 0.187338
77 1 0.829636 0.805239 0.728434
78 1 0.200979 0.199622 0.307994
79 1 0.435598 0.0487276 0.782332
80 1 0.070843 0.451859 0.208478
81 1 0.199554 0.349145 0.704735
82 1 0.804885 0.6481 0.318041
83 1 0.0438552 0.605292 0.794395
84 1 0.441452 0.886131 0.201297
85 1 0.19598 0.850675 0.704276
86 1 0.802392 0.147726 0.291357
87 1 0.0435486 0.110794 0.777082
88 1 0.443211 0.397896 0.188343
89 1 0.688914 0.343122 0.687282
90 1 0.29002 0.645644 0.29597
91 1 0.562149 0.60273 0.795629
92 1 0.940984 0.900846 0.194537
93 1 0.717593 0.851808 0.720455
94 1 0.31043 0.14351 0.31174
95 1 0.545422 0.100161 0.777708
96 1 0.970904 0.392093 0.219036
97 2 0.223644 0.337124 0.937096
98 2 0.769972 0.665781 0.0743841
99 2 0.989842 0.586462 0.5605
100 2 0.473707 0.906059 0.435181
101 2 0.233092 0.835836 0.942281
102 2 0.763977 0.160851 0.0562676
103 2 0.017584 0.0935799 0.54571
104 2 0.502348 0.419849 0.423595
105 2 0.709799 0.334183 0.915621
106 2 0.225867 0.664478 0.0613319
107 2 0.532696 0.586858 0.55892
108 2 0.987727 0.926132 0.42983
109 2 0.755586 0.828207 0.956923
110 2 0.27673 0.158864 0.0789692
111 2 0.50728 0.0680091 0.548266
112 2 0.00436603 0.413946 0.451012
113 2 0.099258 0.302703 0.673729
114 2 0.902611 0.696524 0.345199
115 2 0.145207 0.560101 0.813768
116 2 0.343423 0.929545 0.168865
117 2 0.103303 0.798219 0.679936
118 2 0.905273 0.197303 0.320392
119 2 0.151863 0.0690476 0.815584
120 2 0.347126 0.448183 0.163458
121 2 0.587248 0.298849 0.65264
122 2 0.392705 0.683438 0.300012
123 2 0.657814 0.554468 0.830613
124 2 0.837866 0.9402 0.167848
125 2 0.616551 0.803161 0.689816
126 2 0.411154 0.186735 0.344818
127 2 0.641878 0.0557645 0.81875
128 2 0.862279 0.424582 0.191324
129 2 0.289987 0.211103 0.693156
130 2 0.709552 0.779437 0.338649
131 2 0.970882 0.468347 0.839142
132 2 0.541225 0.0160323 0.166978
133 2 0.295822 0.718137 0.690634
134 2 0.716365 0.279253 0.314114
135 2 0.98142 0.967985 0.806252
136 2 0.533249 0.530899 0.141362
137 2 0.77693 0.206112 0.685977
138 2 0.227291 0.786196 0.34109
139 2 0.468338 0.464616 0.795114
140 2 0.021349 0.0376496 0.156288
141 2 0.806241 0.725781 0.686861
142 2 0.236923 0.282207 0.338387
143 2 0.457625 0.967076 0.826172
144 2 0.0314366 0.530101 0.176308
145 2 0.323862 0.2849 0.952523
146 2 0.666953 0.711146 0.0737631
147 2 0.885982 0.536209 0.581728
148 2 0.575345 0.959605 0.438143
149 2 0.340251 0.796062 0.945508
150 2 0.663234 0.205327 0.0466483
151 2 0.921278 0.0425175 0.538785
152 2 0.602058 0.465888 0.408837
153 2 0.817871 0.287592 0.936478
154 2 0.137271 0.72448 0.0833925
155 2 0.417745 0.546802 0.5405
156 2 0.0888656 0.970811 0.427123
157 2 0.858513 0.787766 0.955087
158 2 0.172539 0.211591 0.0679757
159 2 0.405261 0.0249473 0.547336
160 2 0.100378 0.471656 0.449137
161 2 0.353668 0.287603 0.681026
162 2 0.648465 0.697287 0.347759
163 2 0.89997 0.544715 0.847666
164 2 0.601296 0.93598 0.165899
165 2 0.352904 0.796837 0.672948
166 2 0.647738 0.204963 0.317383
167 2 0.897822 0.0399809 0.810149
168 2 0.584034 0.450124 0.126662
169 2 0.844468 0.280334 0.677241
170 2 0.160017 0.714602 0.364983
171 2 0.401934 0.537825 0.806727
172 2 0.0883997 0.959341 0.146123
173 2 0.874134 0.797346 0.695045
174 2 0.156261 0.208525 0.33845
175 2 0.394867 0.0440903 0.823701
176 2 0.115435 0.461859 0.178433
177 2 0.162071 0.375726 0.655096
178 2 0.8395 0.618396 0.3546
179 2 0.0786762 0.637503 0.830094
180 2 0.407157 0.854559 0.16062
181 2 0.160386 0.881577 0.666885
182 2 0.840831 0.117706 0.33142
183 2 0.073677 0.147248 0.811772
184 2 0.404305 0.369186 0.153381
185 2 0.653278 0.374754 0.645807
186 2 0.32141 0.612938 0.321147
187 2 0.600882 0.630964 0.835391
188 2 0.908988 0.86792 0.163568
189 2 0.677947 0.879455 0.677972
190 2 0.341727 0.113928 0.357681
191 2 0.578972 0.132712 0.816582
192 2 0.940914 0.357813 0.185179
193 3 0.160106 0.292486 0.81851
194 3 0.837891 0.705988 0.203085
195 3 0.066694 0.546757 0.672195
196 3 0.412575 0.949033 0.318873
197 3 0.164793 0.79312 0.822184
198 3 0.834446 0.206559 0.171483
199 3 0.0902267 0.0563646 0.671622
200 3 0.421193 0.458478 0.305143
201 3 0.648504 0.290675 0.804601
202 3 0.311083 0.702514 0.168838
203 3 0.596607 0.547397 0.675076
204 3 0.911292 0.962533 0.307455
205 3 0.682646 0.792049 0.834585
206 3 0.344853 0.200065 0.196222
207 3 0.579501 0.0348908 0.677844
208 3 0.932056 0.445523 0.33556
209 3 0.0893639 0.309323 0.841402
210 3 0.911247 0.691037 0.18773
211 3 0.132723 0.568714 0.642652
212 3 0.340238 0.9351 0.340983
213 3 0.0961447 0.817239 0.841539
214 3 0.901117 0.190222 0.138213
215 3 0.156183 0.081737 0.647623
216 3 0.356729 0.438439 0.337972
217 3 0.579071 0.312587 0.823486
218 3 0.373678 0.684418 0.129569
219 3 0.663756 0.571222 0.652529
220 3 0.845544 0.946175 0.343605
221 3 0.617175 0.812797 0.866948
222 3 0.407599 0.180684 0.158197
223 3 0.650355 0.0564721 0.66088
224 3 0.863638 0.42708 0.361531
225 3 0.185836 0.250601 0.673625
226 3 0.80809 0.745543 0.343124
227 3 0.0604934 0.507107 0.825988
228 3 0.430631 0.982192 0.166944
229 3 0.19186 0.748811 0.67928
230 3 0.816608 0.244979 0.317943
231 3 0.0689246 0.0150823 0.815137
232 3 0.431452 0.498665 0.153384
233 3 0.673978 0.245533 0.662434
234 3 0.323023 0.740283 0.329844
235 3 0.566608 0.50239 0.811982
236 3 0.920911 0.998316 0.159915
237 3 0.707876 0.753732 0.693407
238 3 0.326964 0.243321 0.34044
239 3 0.557119 0.00196706 0.82636
240 3 0.940963 0.485149 0.178819
241 3 0.165994 0.253691 0.566487
242 3 0.834897 0.749223 0.451353
243 3 0.0889863 0.509885 0.93476
244 3 0.398057 0.992604 0.0633038
245 3 0.1741 0.753379 0.571787
246 3 0.840383 0.244424 0.425656
247 3 0.0796873 0.0224535 0.922403
248 3 0.404734 0.496876 0.0456095
249 3 0.660896 0.244433 0.555545
250 3 0.351257 0.735475 0.437167
251 3 0.574363 0.499721 0.918125
252 3 0.902161 0.993751 0.0521175
253 3 0.684813 0.756943 0.585138
254 3 0.345915 0.248071 0.448044
255 3 0.575292 0.00894142 0.933259
256 3 0.90827 0.488054 0.0718115
257 3 0.289025 0.236229 0.83051
258 3 0.704437 0.759092 0.190447
259 3 0.944119 0.487306 0.691998
260 3 0.543239 0.00467925 0.309477
261 3 0.296088 0.739918 0.83773
262 3 0.700285 0.258226 0.170826
263 3 0.967807 0.991498 0.658679
264 3 0.550402 0.513798 0.29298
265 3 0.778108 0.231319 0.825532
266 3 0.199318 0.766531 0.195403
267 3 0.462701 0.48886 0.653753
268 3 0.035237 0.0223165 0.298378
269 3 0.81704 0.736344 0.841671
270 3 0.216499 0.259677 0.186176
271 3 0.448115 0.978818 0.67805
272 3 0.0494221 0.513292 0.324703
273 3 0.234526 0.201351 0.862728
274 3 0.759828 0.797025 0.1671
275 3 0.994439 0.454101 0.651429
276 3 0.487399 0.0424078 0.327246
277 3 0.246671 0.705075 0.877893
278 3 0.7509 0.295689 0.135486
279 3 0.0243082 0.960309 0.622246
280 3 0.503732 0.551535 0.335499
281 3 0.721479 0.197314 0.853613
282 3 0.250608 0.798763 0.155919
283 3 0.518879 0.455535 0.62074
284 3 0.985343 0.0589543 0.334268
285 3 0.759604 0.705344 0.87353
286 3 0.272648 0.290426 0.150765
287 3 0.507217 0.946927 0.652358
288 3 0.993165 0.543075 0.362463
289 3 0.346532 0.31745 0.826946
290 3 0.652042 0.675369 0.205965
291 3 0.887966 0.568697 0.70762
292 3 0.595209 0.919081 0.325107
293 3 0.348764 0.821329 0.810096
294 3 0.648494 0.174667 0.172829
295 3 0.897323 0.0655294 0.671353
296 3 0.599254 0.429727 0.273997
297 3 0.838666 0.312447 0.809787
298 3 0.135613 0.684193 0.212071
299 3 0.411572 0.571869 0.671019
300 3 0.0984853 0.938596 0.307177
301 3 0.873796 0.822372 0.825786
302 3 0.156879 0.177357 0.189871
303 3 0.390518 0.0628826 0.66789
304 3 0.120977 0.438357 0.32982
305 3 0.40545 0.350441 0.893826
306 3 0.599383 0.637196 0.139385
307 3 0.840778 0.61341 0.654767
308 3 0.648215 0.886166 0.397645
309 3 0.392423 0.867929 0.863626
310 3 0.581919 0.151677 0.101078
311 3 0.831952 0.0918753 0.603245
312 3 0.648236 0.387038 0.332874
313 3 0.903537 0.340628 0.878641
314 3 0.0775914 0.646077 0.15556
315 3 0.352186 0.608171 0.608053
316 3 0.157538 0.911035 0.379807
317 3 0.929889 0.858436 0.892396
318 3 0.0939665 0.155444 0.11316
319 3 0.351673 0.103711 0.598222
320 3 0.172042 0.401754 0.397063
321 3 0.263323 0.337001 0.657666
322 3 0.745271 0.653291 0.364337
323 3 0.993076 0.593827 0.858525
324 3 0.505336 0.895296 0.153335