LAMMPS data file via write_data, version 15 Apr 2020, timestep = 80000

576 atoms
4 atom types

7.2893050614483990e-01 1.6975069966854662e+01 xlo xhi
-1.2332276229361501e+00 2.6345227134635937e+01 ylo yhi
-7.0213236210455587e-01 1.3515459044804711e+01 zlo zhi
2.9860495067170489e-01 -1.1836633179673016e-01 4.8150104642617188e-02 xy xz yz

Masses

1 12.0107
2 1.00794
3 14.0067
4 15.9994

Atoms # full

1 1 1 -2.2549600081466781e-01 4.7324894099336143e+00 8.3033186178770499e+00 1.2130102205745644e+01 0 0 0
5 1 1 -2.2203526278044308e-01 5.0639049578151436e+00 2.2372355017479364e+01 1.2307904587754816e+01 0 0 0
7 1 1 -2.2457244772503721e-01 7.5849062132641487e-01 1.1226992204660329e+00 7.7592342446680478e+00 0 0 0
10 1 1 -2.2459520251223103e-01 4.9598712342822626e+00 1.6833067519270351e+01 7.7894408589905018e-01 0 0 0
12 1 1 -2.2275057682920524e-01 1.7053621770852967e+01 2.3880211148800115e+01 5.0544345903730994e+00 0 0 0
14 1 1 -2.2486843597511300e-01 4.7307014681573047e+00 3.1091295715782019e+00 6.4645984356944797e-01 0 0 0
17 1 1 -2.1572856770247925e-01 3.6009278562980018e+00 8.5687064472163890e+00 1.0026490074919199e+01 0 0 0
19 1 1 -2.2450042038877713e-01 2.1224934786029417e+00 1.5496396349910741e+01 9.8061367280398244e+00 0 0 0
21 1 1 -2.3075148136592558e-01 3.6965786273908412e+00 2.2531064224727061e+01 1.0316450409503059e+01 0 0 0
23 1 1 -2.2144810718236380e-01 1.9235676660711465e+00 1.6651238881254895e+00 9.7149599792388415e+00 0 0 0
33 1 1 -2.2952432028662367e-01 5.2525738052317923e+00 6.7777303448732997e+00 9.3889969399629578e+00 0 0 0
37 1 1 -2.2162289484267880e-01 5.3030689233088468e+00 2.0714053760679221e+01 9.6654067482822477e+00 0 0 0
42 1 1 -2.3034879232529434e-01 4.7078052995935558e+00 1.8233526863430427e+01 3.6923611055265377e+00 0 0 0
44 1 1 -2.2916461170750629e-01 1.1856946678312532e+00 2.5381013379957089e+01 2.3558276792555106e+00 0 0 0
46 1 1 -2.3219721430310511e-01 4.2297804813647639e+00 4.3087158764659783e+00 3.5971931342899861e+00 0 0 0
48 1 1 -2.2915738360968232e-01 1.2300986286354192e+00 1.1227832448331199e+01 2.2334759755183211e+00 0 0 0
49 1 1 -2.2270410637163587e-01 5.7573836357033521e+00 7.2370039612658275e+00 1.1748120235406219e+01 0 0 0
53 1 1 -2.1339915222019964e-01 6.1053855562846762e+00 2.1302285021777010e+01 1.1933306893038669e+01 0 0 0
58 1 1 -2.1809685919574923e-01 4.0620749110086125e+00 1.7941846965285755e+01 1.3375700456718538e+00 0 0 0
60 1 1 -2.2673608096186021e-01 1.7222574179879642e+00 2.5024483105181211e+01 4.6689068904094970e+00 0 0 0
62 1 1 -2.0913792387395333e-01 3.6630455280016956e+00 4.0352575802395236e+00 1.1269985371713735e+00 0 0 0
64 1 1 -2.1810214206588122e-01 1.8232019772691310e+00 1.0917213830872743e+01 4.6558322951436004e+00 0 0 0
65 1 1 -2.2790857905413858e-01 6.3301986494901170e+00 7.8534418469355742e+00 9.4023649282490709e+00 0 0 0
74 1 1 -2.3780659079228120e-01 3.5626916646756146e+00 1.7177903762882217e+01 3.6128064133203273e+00 0 0 0
76 1 1 -2.2166306446026338e-01 2.3257855134635435e+00 2.4367806872816708e+01 2.4614255702920218e+00 0 0 0
78 1 1 -2.3320921227672736e-01 3.1239707125703138e+00 3.2187043699037501e+00 3.3744226068422272e+00 0 0 0
80 1 1 -2.2366899823137371e-01 2.3436194406706061e+00 1.0227109968352917e+01 2.3303423171066817e+00 0 0 0
81 1 1 -2.2241880185214372e-01 4.6475025475096006e+00 9.6376369890150890e+00 1.0040398737979050e+01 0 0 0
83 1 1 -2.2765490094523760e-01 1.0010349857996634e+00 1.6545449368298961e+01 9.7099404424129574e+00 0 0 0
85 1 1 -2.2931868638690675e-01 4.8412570929768606e+00 2.3558176520571848e+01 1.0226662402665610e+01 0 0 0
87 1 1 -2.2571924518121178e-01 7.7584677681515712e-01 2.7060154715341049e+00 9.6682521834260413e+00 0 0 0
90 1 1 -2.2109626069475896e-01 5.0700101642435262e+00 1.5462032535406573e+01 2.6992190358083805e+00 0 0 0
94 1 1 -2.2821598746514757e-01 4.8016649712902764e+00 1.5734780836398334e+00 2.6103637022097637e+00 0 0 0
97 1 2 2.7185380758492311e-01 4.6264230417636112e+00 8.3524940882173002e+00 1.3210612889627988e+01 0 0 0
101 1 2 2.8174915909415166e-01 4.9880447964480696e+00 2.2571290297528719e+01 1.3393792366561993e+01 0 0 0
103 1 2 2.6834672775261537e-01 8.2329518810315028e-01 1.1583301054577193e+00 6.6710198045588829e+00 0 0 0
106 1 2 2.7590611947641208e-01 4.9873126061618471e+00 1.6813092400446443e+01 -3.2794977690985938e-01 0 0 0
108 1 2 2.7892052166960501e-01 1.7059326434375080e+01 2.3753138396928804e+01 6.2103765857906570e+00 0 0 0
110 1 2 2.7931146110377481e-01 4.8253647972022859e+00 3.0940964507093005e+00 -4.1851277194842296e-01 0 0 0
113 1 2 2.7704715697129789e-01 2.6034423864891525e+00 8.9065172787371143e+00 9.6437435634054225e+00 0 0 0
115 1 2 2.8530331717018853e-01 3.0045945261098215e+00 1.5984005501327404e+01 1.0236948817904114e+01 0 0 0
117 1 2 2.7945778418138795e-01 2.7115180028190662e+00 2.2853334773203173e+01 1.0085085843379193e+01 0 0 0
119 1 2 2.7638339474776563e-01 2.9100643677791291e+00 2.1878594836983547e+00 9.9007074327876197e+00 0 0 0
129 1 2 2.6346760029076621e-01 5.4694273339932389e+00 6.1285240667034984e+00 8.5676527672945433e+00 0 0 0
133 1 2 2.6460753519165869e-01 5.3245052556722525e+00 1.9845511244215423e+01 9.0009089825457629e+00 0 0 0
138 1 2 2.7155501798492487e-01 4.5321340426391563e+00 1.8724596782430780e+01 4.6479436726769583e+00 0 0 0
140 1 2 2.7704578147638098e-01 1.3159490598972834e+00 2.6095069140541476e+01 1.5212440612887490e+00 0 -1 0
142 1 2 2.6728558151613924e-01 4.0981621020947578e+00 4.8371747852778988e+00 4.5748689451349618e+00 0 0 0
144 1 2 2.6825439720372946e-01 1.4495565799676466e+00 1.1884671650751365e+01 1.3805700001859154e+00 0 0 0
149 1 2 2.8284235471400349e-01 6.5907500251217259e+00 2.0794384184464604e+01 1.2828817878309465e+01 0 0 0
154 1 2 2.8628686552611426e-01 3.6047303117436860e+00 1.8553142492017393e+01 5.6768721351774443e-01 0 0 0
156 1 2 2.7493009908817517e-01 1.9919615900876877e+00 2.5467415505098508e+01 5.5742677824032638e+00 0 0 0
158 1 2 2.8475474824202962e-01 3.3665956399636516e+00 4.6299095462094604e+00 2.5347861382718417e-01 0 0 0
160 1 2 2.8358616190858754e-01 2.1488247174465709e+00 1.1533024482626278e+01 5.5516735345675237e+00 0 0 0
170 1 2 2.6982543114686541e-01 2.7526437883377710e+00 1.7363496234476671e+01 4.3450788096449893e+00 0 0 0
172 1 2 2.7279126647545732e-01 3.1375760388379130e+00 2.4644942581433263e+01 1.6864272717804036e+00 0 0 0
174 1 2 2.8131580390338928e-01 2.2916712704293634e+00 3.5058339617920993e+00 3.9754116788068394e+00 0 0 0
176 1 2 2.7243675512815985e-01 3.0964582018693645e+00 1.0407556767903081e+01 1.5545467770396568e+00 0 0 0
177 1 2 2.8131944043785134e-01 4.3302859857672269e+00 1.0654423984029986e+01 9.7457827854927146e+00 0 0 0
179 1 2 2.7842541600576814e-01 1.3949398569856695e+00 1.7545360838410815e+01 9.9951173224896159e+00 0 0 0
181 1 2 2.9526001839007360e-01 4.4933507282960772e+00 2.4526650343458428e+01 1.0021845569070607e+01 0 0 0
183 1 2 2.8798240589101565e-01 1.1128980276616807e+00 3.7874707002225634e+00 9.8065884849357232e+00 0 0 0
193 1 3 1.7763648620278277e-01 3.3992740845419327e+00 7.9686276589172778e+00 1.1568395680127175e+01 0 0 0
195 1 3 1.9379572369220052e-01 2.3292398316250549e+00 1.4912244342302218e+01 8.3402046371363561e+00 0 0 0
197 1 3 1.7077486800845609e-01 3.6581990386451615e+00 2.2075930622316172e+01 1.1853439129231489e+01 0 0 0
199 1 3 1.8017658631539013e-01 2.1261977403019294e+00 9.4522487550611034e-01 8.3041389987808145e+00 0 0 0
202 1 3 1.8423137635828940e-01 6.3765739150817531e+00 1.7044892835563452e+01 1.3323879043063438e+00 0 0 0
209 1 3 3.4660291219096240e-01 2.2821780542907057e+00 8.6798451950354156e+00 1.2316292341082100e+01 0 0 0
211 1 3 3.4306945971639102e-01 3.4860803782992313e+00 1.5617270868632056e+01 7.6483671733887659e+00 0 0 0
213 1 3 3.3951612094359129e-01 2.4996374659128060e+00 2.2704055308847181e+01 1.2641230100424284e+01 0 0 0
215 1 3 3.4342645059266397e-01 3.2216705528885381e+00 1.7283618940650403e+00 7.5216972742605739e+00 0 0 0
225 1 3 1.7493620727094683e-01 3.8440303337223654e+00 7.3810530150589990e+00 9.0917355541696168e+00 0 0 0
227 1 3 1.8653052476337723e-01 1.8418343429281236e+00 1.4323869610888668e+01 1.0727464884241847e+01 0 0 0
229 1 3 1.9654100119343801e-01 3.8434522443251966e+00 2.1388776912083678e+01 9.4109924024303986e+00 0 0 0
231 1 3 1.9297757327969531e-01 1.7682294470203890e+00 6.0181926323761670e-01 1.0796487091593477e+01 0 0 0
238 1 3 1.8472795640870424e-01 5.6099041257395452e+00 3.6015111217074089e+00 3.8519093725002209e+00 0 0 0
241 1 3 3.3933599406623760e-01 3.6653052965789819e+00 7.6910753851344484e+00 7.6044707138138934e+00 0 0 0
243 1 3 3.5138875316988816e-01 1.9865667660177353e+00 1.4751633339441113e+01 1.2189663883061790e+01 0 0 0
245 1 3 3.5694929552947485e-01 3.5877266849372460e+00 2.1764873904922389e+01 7.9361970878275558e+00 0 0 0
247 1 3 3.4749599492173466e-01 1.9278191108034459e+00 1.2123972507336087e+00 1.2209143489426022e+01 0 0 0
257 1 3 1.9286784973770787e-01 5.3050508525535234e+00 5.9962288610438996e+00 1.0701619262978763e+01 0 0 0
261 1 3 1.8493659753350936e-01 5.5259440090497050e+00 2.0041889416115815e+01 1.1014525435388805e+01 0 0 0
266 1 3 1.8827955781254949e-01 4.6417559136149134e+00 1.9007435138583638e+01 2.3721157065044047e+00 0 0 0
268 1 3 1.8127802337563023e-01 1.1588654259640152e+00 2.6153082793091912e+01 3.6970281016669801e+00 0 -1 0
270 1 3 1.9266591773690384e-01 4.1476349050475338e+00 5.2601660195717646e+00 2.4723282508700044e+00 0 0 0
272 1 3 1.9002236548107934e-01 1.3143374248053024e+00 1.2004515576158726e+01 3.5162932996543965e+00 0 0 0
273 1 3 3.4618231904505403e-01 4.0569115300941458e+00 5.2503624176186685e+00 1.1143288685225713e+01 0 0 0
277 1 3 3.4555016470398564e-01 4.2515036452950499e+00 1.9368251129213945e+01 1.1569348967927837e+01 0 0 0
279 1 3 3.4448803243337961e-01 1.8917638433496462e+00 2.5897463998344691e+01 8.8531008568528726e+00 0 0 0
282 1 3 3.4457116145024880e-01 5.9053100818204616e+00 1.9733210504931641e+01 1.8587091622019756e+00 0 0 0
286 1 3 3.4098134766737331e-01 5.4503064499551979e+00 5.9494158293588724e+00 2.1321532219482204e+00 0 0 0
298 1 3 1.6593537032502223e-01 2.9032512329764018e+00 1.7436007175535423e+01 2.2141973355487621e+00 0 0 0
300 1 3 1.7826318541519909e-01 2.9575985488420846e+00 2.4489873416855779e+01 3.9001301919867446e+00 0 0 0
302 1 3 1.8215356738096125e-01 2.5553794055735835e+00 3.4269498853246585e+00 1.8415026268868133e+00 0 0 0
304 1 3 1.7961903962145453e-01 2.9891094539225023e+00 1.0265278843267906e+01 3.9602629505120186e+00 0 0 0
314 1 3 3.3367814853393252e-01 1.7110208322205853e+00 1.8432983461213354e+01 2.2996904328693617e+00 0 0 0
316 1 3 3.3677802552417474e-01 4.1611299772149852e+00 2.5441860452076327e+01 3.9102613386037062e+00 0 0 0
318 1 3 3.4319129574753127e-01 1.2426775180508833e+00 4.2387888210073363e+00 1.7716980934650906e+00 0 0 0
320 1 3 3.4934880175702626e-01 4.1697601591965059e+00 1.1219130218231149e+01 4.0388350126857215e+00 0 0 0
321 1 3 1.8356994097098472e-01 5.8231346787683176e+00 9.1985098849648015e+00 9.0427501766300509e+00 0 0 0
325 1 3 1.9566641283999767e-01 5.8876591861432583e+00 2.3078661158810398e+01 9.1644019537706463e+00 0 0 0
330 1 3 1.9135140446746540e-01 3.9905282969809339e+00 1.5759702906935084e+01 3.7830416808000793e+00 0 0 0
332 1 3 1.8956787007147863e-01 1.9247051653549572e+00 2.2942218894271797e+01 2.0782768119934465e+00 0 0 0
334 1 3 1.9156200398206535e-01 3.5778095286352354e+00 1.8588920397438717e+00 3.6321350117791331e+00 0 0 0
337 1 3 3.3002139665637664e-01 6.9798375164798481e+00 1.0193562866727481e+01 9.1492689908448170e+00 0 0 0
346 1 3 3.3148275610179717e-01 2.7973756068316948e+00 1.4764566907249563e+01 3.6999847129971037e+00 0 0 0
348 1 3 3.4155932148506474e-01 3.1040106898131290e+00 2.1976413577289762e+01 2.1925407591512838e+00 0 0 0
350 1 3 3.2425028657674571e-01 2.3904184173800811e+00 9.1563047015430943e-01 3.3259317564212081e+00 0 0 0
352 1 3 3.2616207722529067e-01 2.8858090547312063e+00 7.8203564086721951e+00 1.9436433899069314e+00 0 0 0
353 1 3 1.7236605670730124e-01 5.0621111779885117e+00 9.7752510032033761e+00 1.1505611579130115e+01 0 0 0
357 1 3 1.6484639803419915e-01 5.4119630832022709e+00 2.3724995386902329e+01 1.1629289693979100e+01 0 0 0
359 1 3 1.7056596028185395e-01 1.6550133762668239e+01 2.5986192299122610e+00 8.2307761394867107e+00 -1 0 0
362 1 3 1.6654473277888399e-01 4.5045397028309848e+00 1.5441583543498171e+01 1.2396878407526917e+00 0 0 0
366 1 3 1.8630638258827581e-01 4.3836625881539542e+00 1.5712448828032324e+00 1.1735168573623280e+00 0 0 0
369 1 3 3.4300080423642870e-01 4.3861599636354889e+00 1.0903570329864165e+01 1.2250145859594038e+01 0 0 0
373 1 3 3.3965190621399644e-01 4.8162232016385955e+00 2.4936487823042214e+01 1.2392272742230748e+01 0 0 0
375 1 3 3.4114997098248034e-01 8.7353329559902382e-01 3.7140981980454049e+00 7.3518053464754489e+00 0 0 0
378 1 3 3.4125576111637279e-01 5.0753556372358766e+00 1.4280430136492907e+01 4.0068285599954123e-01 0 0 0
385 1 4 -2.8919767543568520e-01 1.4157862943462733e+00 9.2636095903897306e+00 1.1577734212779667e+01 0 0 0
387 1 4 -2.8643573892651586e-01 4.3002616294154112e+00 1.6333263089826836e+01 8.3356039145945289e+00 0 0 0
388 1 4 -2.8620699408218542e-01 5.7217867232540049e+00 2.2733715500211140e+01 4.6379760077083851e+00 0 0 0
389 1 4 -2.9022623564598160e-01 1.4219429727497430e+00 2.3085073360514905e+01 1.2045657648791440e+01 0 0 0
391 1 4 -2.9843416913890047e-01 4.2101662362939010e+00 2.2209476811770941e+00 8.1667385179338261e+00 0 0 0
401 1 4 -3.0161933260215756e-01 2.3717103866179192e+00 8.6367012061778397e+00 -6.1697336359413180e-01 0 0 1
403 1 4 -2.9142276213587009e-01 3.6827351591726254e+00 1.5304378254977861e+01 6.4183323212814525e+00 0 0 0
405 1 4 -3.0086009068876463e-01 2.6221455562881921e+00 2.2621959778815757e+01 -2.9353695551042758e-01 0 0 1
407 1 4 -3.0076978040733671e-01 3.1610171287737825e+00 1.7103950367709766e+00 6.2447034125062713e+00 0 0 0
417 1 4 -2.7216062735987256e-01 4.0360449281743236e+00 6.8696049364404104e+00 6.6696610994424814e+00 0 0 0
419 1 4 -2.6245213990477628e-01 1.4277355637121274e+00 1.4078247787292865e+01 1.3147913053104581e+01 0 0 0
421 1 4 -2.5837129779372547e-01 3.9740173956615275e+00 2.0967774100740463e+01 6.9842254107164683e+00 0 0 0
423 1 4 -2.5741513925358206e-01 1.7613307025634024e+00 4.8656030050894561e-01 1.3264587473137073e+01 0 1 0
430 1 4 -2.7523820543658084e-01 5.3995081087258612e+00 3.7062845274973650e+00 6.2084488090930749e+00 0 0 0
433 1 4 -2.9534587650050453e-01 3.0741072569291208e+00 8.7615307213448137e+00 7.1980427433529348e+00 0 0 0
435 1 4 -2.8707590404104799e-01 2.7188868764780496e+00 1.5760170890353452e+01 1.2458859650071805e+01 0 0 -1
437 1 4 -2.8016283354122812e-01 2.9900659757366554e+00 2.2829182698311236e+01 7.6465691587598270e+00 0 0 0
439 1 4 -2.7679948655391801e-01 2.2515180690140433e+00 2.4506556576024141e+00 1.2386656647487776e+01 0 0 -1
449 1 4 -2.9612827526000596e-01 3.2704241593120127e+00 4.7053036670461115e+00 1.0268082281054124e+01 0 0 0
451 1 4 -2.9608243870343076e-01 2.0208564444815660e+00 1.1434675884128296e+01 9.6335066720877158e+00 0 0 0
453 1 4 -2.9267657527557611e-01 3.3581685040227840e+00 1.9062169832633543e+01 1.0734822594327685e+01 0 0 0
455 1 4 -3.1426875082135292e-01 2.6914004352779992e+00 2.5365949215000676e+01 9.7075981230418797e+00 0 0 0
458 1 4 -2.9866140560066184e-01 6.6928996922563302e+00 2.0279253130047231e+01 2.6770879164030923e+00 0 0 0
462 1 4 -2.8155890523647009e-01 6.3053191021136765e+00 6.3751420436405590e+00 3.0012735325195248e+00 0 0 0
465 1 4 -3.1454047665497981e-01 3.7383576435747781e+00 5.2767658673477458e+00 1.2383718551503449e+01 0 0 0
469 1 4 -3.1524147173845807e-01 4.2174469942384594e+00 1.9104714254444872e+01 1.2825646635064846e+01 0 0 0
471 1 4 -3.2191231871224552e-01 2.1082087427228897e+00 2.5854200535413895e+01 7.5858289700711650e+00 0 0 0
474 1 4 -2.9973990015497132e-01 5.9809939514152797e+00 2.0049812421243089e+01 6.0568503129971107e-01 0 0 0
478 1 4 -2.9711095180152514e-01 5.7897167403204142e+00 6.0579277964002927e+00 8.7567301498300321e-01 0 0 0
490 1 4 -2.9061754436504045e-01 1.7070808108410347e+01 1.8354114640513139e+01 3.2310974190832042e+00 -1 0 0
491 1 4 -2.8827016785875553e-01 4.6130525442689834e+00 1.4116643376424069e+01 9.8785727822035021e+00 0 0 0
492 1 4 -2.8854486269452972e-01 5.1505032486041369e+00 2.5236162902716508e+01 3.1229275416011069e+00 0 0 0
494 1 4 -2.9746357713959737e-01 1.6635226494300969e+01 4.1301489687307242e+00 2.7172673260605746e+00 -1 0 0
495 1 4 -2.6581671582944166e-01 5.0124568596773562e+00 -6.0677800927884451e-01 8.0886352049702630e+00 0 0 0
496 1 4 -2.9925867090772768e-01 5.1295860729957177e+00 1.1068676263910605e+01 3.1947469944361475e+00 0 0 0
506 1 4 -2.8410169709758520e-01 1.6105753340521614e+00 1.9198668404376193e+01 1.2900749122614539e+00 0 0 0
508 1 4 -2.8594803740123503e-01 3.8937010120850006e+00 -1.1908629719336346e+00 4.7629237514422877e+00 0 1 0
510 1 4 -2.5610479229337768e-01 9.7697864318367778e-01 4.8672312899429473e+00 6.8788694966458519e-01 0 0 0
512 1 4 -2.6041609285770984e-01 4.2208689290597210e+00 1.2060815660679543e+01 5.0209631859775357e+00 0 0 0
513 1 4 -3.2733723846351387e-01 6.8224182727026905e+00 1.1326466831341223e+01 9.7492712825239458e+00 0 0 0
522 1 4 -3.2083744634418310e-01 3.0766089021875649e+00 1.3614600998285137e+01 3.1999941511903645e+00 0 0 0
524 1 4 -3.1502770803626234e-01 2.9344450073142907e+00 2.0849506857540916e+01 2.7456206039101354e+00 0 0 0
526 1 4 -3.2580240699097984e-01 2.4434565496717044e+00 9.9546959920117750e-02 2.3459427602021679e+00 0 0 0
528 1 4 -3.3410611583389915e-01 2.5378013139307374e+00 6.6312285924277869e+00 2.3530772534538427e+00 0 0 0
538 1 4 -3.1425726239575186e-01 1.6616348019552989e+00 1.5044898832422595e+01 4.1707572895150946e+00 0 0 0
540 1 4 -2.9322595294252485e-01 4.2635372379399712e+00 2.2441295146334369e+01 1.8633382840571118e+00 0 0 0
542 1 4 -3.1746095850334727e-01 1.2660230322719217e+00 1.1803460782609982e+00 3.8968242791726277e+00 0 0 0
544 1 4 -3.0745601549165252e-01 4.1150903969570498e+00 8.1694239910924118e+00 1.8401725666910602e+00 0 0 0
545 1 4 -2.6094106658298866e-01 4.0577054951518239e+00 1.1976573639714541e+01 1.1617822707134415e+01 0 0 0
547 1 4 -2.6107993634923005e-01 1.6001677878809279e+00 1.8940010947135214e+01 8.2937350853799963e+00 0 0 0
549 1 4 -2.5127526529681138e-01 4.5710653912406141e+00 2.6026186557833057e+01 1.1824330085065931e+01 0 0 0
551 1 4 -2.6246375726718923e-01 1.1499044339576820e+00 4.8191731848909294e+00 7.9097000552009389e+00 0 0 0
561 1 4 -2.7572236882409895e-01 4.4379596271389188e+00 1.0751403635165634e+01 -6.8159440225944301e-01 0 0 1
565 1 4 -2.7536532800117325e-01 4.6493408438163382e+00 2.4740035872141711e+01 -5.6917556463226848e-01 0 0 1
567 1 4 -2.7756166167010282e-01 8.8845941566517150e-01 3.5247704796728563e+00 6.0717855333106945e+00 0 0 0
570 1 4 -2.6814740536617182e-01 5.0239816925823026e+00 1.4431393498530189e+01 1.3342432968697118e+01 0 0 -1
39 1 1 -2.2456770763637046e-01 1.6638287359548627e+01 -5.5486288475475654e-02 1.0607691158594065e+01 0 0 0
284 1 3 3.4392047026865813e-01 1.5764729103146534e+01 -8.5413108687914518e-01 4.1556170496428573e+00 0 0 0
476 1 4 -3.0910324536955874e-01 1.5475003103960489e+01 -8.2966454885904384e-01 5.4061265433159731e+00 0 0 0
364 1 3 1.7798470757989066e-01 1.2732432719900737e+00 2.2525374411473891e+01 4.5503616123404154e+00 1 0 0
30 1 1 -2.2553574587891717e-01 5.9073655952928252e+00 2.6290428946858535e+00 2.7540098668385413e+00 0 0 0
161 1 2 2.8637862641612527e-01 7.1450205239591948e+00 7.6423247603377060e+00 8.7135935759757146e+00 0 0 0
190 1 2 2.8227780823415688e-01 5.2197383773308390e+00 5.8336811706494807e-01 2.8712214689305271e+00 0 0 0
206 1 3 1.8763040756380950e-01 6.0694070976560601e+00 3.3760668666963856e+00 1.3186728538474624e+00 0 0 0
315 1 3 3.3827827837549279e-01 5.5427234919349644e+00 1.3853732431687993e+01 9.0205005783810641e+00 0 0 0
336 1 3 1.8618148568629156e-01 1.7997308181406895e+00 8.8900362358860860e+00 1.9620221086188394e+00 0 0 0
382 1 3 3.4979612695993278e-01 5.2161966075332273e+00 5.6048353822259522e-01 3.9084990563740440e-01 0 0 0
392 1 4 -2.9162150058170316e-01 5.5650722653621463e+00 9.0503822897956372e+00 4.7047745293528367e+00 0 0 0
507 1 4 -2.6202805146057778e-01 5.2765705452034171e+00 1.3055845474428757e+01 8.0375513153804050e+00 0 0 0
558 1 4 -2.5851353598594207e-01 5.4930874122552602e+00 -5.4908653176973332e-01 9.2626652591597480e-01 0 0 0
574 1 4 -2.7406612644383416e-01 5.2786964842631132e+00 7.5843994219744060e-01 1.3340103788502031e+01 0 0 -1
35 1 1 -2.3155254121116045e-01 1.6580660164042051e+01 1.3804951523649731e+01 1.0480365442702492e+01 0 0 0
131 1 2 2.6367443513266126e-01 1.6424285001894916e+01 1.3160645092197065e+01 1.1335797581211317e+01 0 0 0
135 1 2 2.6336802377790741e-01 1.6462208923741432e+01 -7.7996184060219853e-01 1.1422796581966384e+01 0 1 0
263 1 3 1.8947273102963494e-01 1.6552351938856443e+01 -9.6896267190665553e-01 9.2930539714407558e+00 0 1 0
432 1 4 -2.6727958051590434e-01 1.6335057666170165e+01 1.0940911905242015e+01 -3.1137007233653946e-01 0 0 0
69 1 1 -2.1772061475366958e-01 6.3778536000679011e+00 2.1727822476192777e+01 9.5717650937013872e+00 0 0 0
234 1 3 1.9144837253030469e-01 6.0574402517787789e+00 1.7547521571208755e+01 3.8537059135003426e+00 0 0 0
371 1 3 3.4417076987966744e-01 1.4055447535287122e+00 1.7893069906438953e+01 7.6112069703268679e+00 0 0 0
426 1 4 -2.7338997930317854e-01 6.0243980135223101e+00 1.7760363459096283e+01 6.3050802049867638e+00 0 0 0
517 1 4 -3.3169216990830058e-01 6.9250165868875584e+00 2.5233354585123003e+01 9.5135975113999862e+00 0 0 0
563 1 4 -2.9313757837143462e-01 1.8591056662270291e+00 1.7766478885340987e+01 6.4092386473236234e+00 0 0 0
355 1 3 1.6876287438609461e-01 1.6854885338770814e+01 1.6784339243995419e+01 8.2854238590674818e+00 -1 0 0
3 1 1 -2.1507902077827246e-01 9.8894636521342782e-01 1.5283685939639509e+01 7.7023474458324985e+00 0 0 0
323 1 3 1.9137776449989297e-01 1.5995940666506174e+01 1.6178406950757712e+01 1.0679295146728577e+01 0 0 0
20 1 1 -2.2283561848318251e-01 7.7679046834577132e+00 2.3395087242915658e+01 3.0287151118020148e+00 0 0 0
24 1 1 -2.2620142021334447e-01 7.6514500540302874e+00 9.7613808563404874e+00 3.0888205974603324e+00 0 0 0
26 1 1 -2.1775100270127457e-01 6.2287948698517912e+00 1.6431146814097453e+01 2.8030214188756761e+00 0 0 0
63 1 1 -2.2095497236157649e-01 7.6409564987847949e+00 3.8811845205577433e-01 8.1822070393601223e+00 0 0 0
75 1 1 -2.3137941402629927e-01 7.5724966067640720e+00 1.4743620682891478e+01 1.0556962868258601e+01 0 0 0
116 1 2 2.8970201555778796e-01 6.8474781042536090e+00 2.2885469074406700e+01 2.8142359055092152e+00 0 0 0
120 1 2 2.8561302529931282e-01 6.6605096050816917e+00 9.3491381470767205e+00 2.8704419639057246e+00 0 0 0
122 1 2 2.8720069553747002e-01 7.1956106808783122e+00 1.5917861702278548e+01 3.0733701168532930e+00 0 0 0
126 1 2 2.8035709188256602e-01 6.8614117130140126e+00 2.1540612786734781e+00 3.1240388048350023e+00 0 0 0
145 1 2 2.7236996506220074e-01 6.1685923792610504e+00 6.7537346181656508e+00 1.2645585857734684e+01 0 0 0
159 1 2 2.8286282354519959e-01 7.2261754540803143e+00 -9.0054777978411327e-02 7.2904939568139362e+00 0 0 0
165 1 2 2.7917781155698312e-01 7.1746674876326733e+00 2.1375113070341548e+01 8.8679867927491465e+00 0 0 0
171 1 2 2.7026994018123618e-01 6.8391340350862730e+00 1.4514028406491864e+01 1.1274218724672753e+01 0 0 0
175 1 2 2.8287377355062088e-01 6.6150664769043628e+00 1.0196943341823350e+00 1.1311985037151523e+01 0 0 0
180 1 2 2.8666152241329551e-01 8.4856999899674754e+00 2.1399188750112735e+01 2.8765948040890521e+00 0 0 0
184 1 2 2.8361463182730312e-01 8.2745815788880588e+00 7.6295607720997101e+00 3.0055584143537049e+00 0 0 0
186 1 2 2.8495889775138228e-01 5.4399016412676078e+00 1.4417203714730805e+01 2.7894747116918843e+00 0 0 0
196 1 3 1.8446518574251913e-01 7.6824548595236433e+00 2.4071180632335910e+01 4.5081952335781450e+00 0 0 0
200 1 3 1.8161015045943610e-01 7.5620853680710933e+00 1.0398747486473138e+01 4.4415586694936513e+00 0 0 0
212 1 3 3.5027853498457284e-01 6.5242167952383374e+00 2.3456837713851499e+01 5.3058780315423340e+00 0 0 0
216 1 3 3.4165293427162929e-01 6.4458000285256727e+00 9.7590146709798642e+00 5.2957551280230115e+00 0 0 0
218 1 3 3.4559821820503356e-01 7.3321251268967487e+00 1.6194846361405688e+01 5.1153182550756360e-01 0 0 0
222 1 3 3.4483876890667275e-01 7.2368351553485777e+00 2.7772418187896628e+00 5.4552340707924118e-01 0 0 0
232 1 3 1.9205633610634543e-01 7.9977804264528372e+00 1.0804659532541375e+01 2.0078298091409761e+00 0 0 0
248 1 3 3.4526233823693875e-01 7.8067380661488830e+00 1.0262867198580107e+01 5.7092963425826926e-01 0 0 0
250 1 3 3.5257997613826458e-01 6.3242069985113121e+00 1.7061137269334552e+01 5.3000628636554987e+00 0 0 0
254 1 3 3.4650677403140839e-01 5.8745970392155265e+00 3.0099916558959556e+00 5.2544552875662429e+00 0 0 0
289 1 3 1.7762423165888314e-01 6.8670554062474150e+00 7.8716025834522618e+00 1.1001210941516153e+01 0 0 0
293 1 3 1.6631455462520248e-01 7.2295793580473013e+00 2.1788219359051489e+01 1.1108734775657190e+01 0 0 0
299 1 3 1.7364362232842426e-01 6.9205956755949032e+00 1.4528228925290424e+01 9.0702618374219703e+00 0 0 0
303 1 3 1.8010401733519149e-01 6.5864839383589882e+00 9.4641106109566753e-01 9.0475431202577710e+00 0 0 0
305 1 3 3.4064038983803996e-01 8.0619420827510826e+00 6.9543416178206012e+00 1.1220239991933784e+01 0 0 0
309 1 3 3.3976638774207485e-01 8.4593795560965894e+00 2.0874863088671795e+01 1.1106483688456347e+01 0 0 0
319 1 3 3.4356287420135245e-01 5.3438221036285647e+00 7.3340412676039968e-02 9.1438575494039469e+00 0 0 0
341 1 3 3.3923696677260101e-01 7.0997777163492861e+00 2.4051216374591853e+01 9.0690265332163023e+00 0 0 0
347 1 3 3.3497619018733910e-01 6.9125727829111261e+00 1.7239941627350390e+01 1.0688246294151767e+01 0 0 0
372 1 3 3.4120367164320708e-01 8.7185825570817759e+00 2.1292929019075530e+01 5.4103421588627674e+00 0 0 0
394 1 4 -2.7809775544364501e-01 7.9624792909476323e+00 1.5275591519564832e+01 1.1429004894676187e+00 0 0 0
404 1 4 -2.7982326014979070e-01 6.3556884758116619e+00 2.3740352039803746e+01 6.5461875836434613e+00 0 0 0
408 1 4 -2.9237230860941676e-01 6.3522971231884560e+00 1.0100148215552121e+01 6.5327982014862593e+00 0 0 0
410 1 4 -2.8823328141339138e-01 7.3834625046408382e+00 1.6574782647141319e+01 1.3506663582673170e+01 0 0 -1
414 1 4 -2.9484783138160181e-01 7.0918237796288395e+00 3.0296784830712404e+00 1.3494149596931393e+01 0 0 -1
424 1 4 -2.6551539418483150e-01 8.2764081802390486e+00 1.0954661856125306e+01 -4.5314780432517493e-01 0 0 0
436 1 4 -3.0708766598459103e-01 7.1020699080278087e+00 2.2986352549414583e+01 3.6766442742290129e-01 0 0 1
440 1 4 -2.8763809910873223e-01 6.9919666615019205e+00 9.3175916965587859e+00 3.6406470563445548e-01 0 0 1
442 1 4 -2.9014583991623893e-01 6.8697079878786189e+00 1.5886351132804117e+01 5.4184321779147506e+00 0 0 0
446 1 4 -3.1422323049872414e-01 6.7451581729915482e+00 2.0953622660000204e+00 5.3832077054650176e+00 0 0 0
456 1 4 -2.9101910857725583e-01 7.5811255597661678e+00 1.3439904526726721e+01 3.3147547607083112e+00 0 0 0
497 1 4 -2.5619172503726867e-01 8.3888478375380391e+00 6.4884006999054966e+00 1.2365039372825940e+01 0 0 0
501 1 4 -2.6258504651789438e-01 8.7371649750091080e+00 2.0197767307427895e+01 1.2152036789122850e+01 0 0 0
511 1 4 -2.8548858974118674e-01 4.5985843883308881e+00 1.7179739681546713e-01 1.0174015675221487e+01 0 0 0
529 1 4 -3.0163332164538553e-01 8.1804547960204541e+00 9.8405438438386419e+00 8.8040083248987280e+00 0 0 0
533 1 4 -2.9985108972881963e-01 8.2274173834391782e+00 2.3619721469286176e+01 8.6464445525948292e+00 0 0 0
539 1 4 -2.9438973746207581e-01 5.6840102616365575e+00 1.6910562680445437e+01 1.0887453130395887e+01 0 0 0
543 1 4 -3.1047315398407743e-01 5.5932446022087392e+00 3.1620549860045966e+00 1.1167752675969250e+01 0 0 0
548 1 4 -2.5505240269904678e-01 8.2410264767081056e+00 2.0259025866733857e+01 4.8333619674238095e+00 0 0 0
552 1 4 -2.4147452257462956e-01 8.1006128952926915e+00 6.5399310124154137e+00 5.2307366025750790e+00 0 0 0
554 1 4 -2.6397976990119348e-01 5.4654137034528381e+00 1.3208073872186370e+01 9.9026791059603569e-01 0 0 0
564 1 4 -2.7777795424996532e-01 8.4927010388189341e+00 2.1542214258110675e+01 6.6507726011875530e+00 0 0 0
327 1 3 1.9428794922765052e-01 1.5967290604503603e+01 2.4001478155148939e+00 1.0743928149292778e+01 0 0 0
4 1 1 -2.2722442089716771e-01 9.0879617390119698e+00 2.3802252316928119e+01 5.0101129877269646e+00 0 0 0
8 1 1 -2.2353221019966299e-01 9.0573736294810114e+00 1.0093761445235717e+01 5.0716254412439117e+00 0 0 0
15 1 1 -2.2158618525757773e-01 8.6737426952111267e+00 1.4277366768583848e+00 7.7086611830459253e+00 0 0 0
36 1 1 -2.3351708909897495e-01 9.5032897647819805e+00 2.5127235029479429e+01 2.2794369159743955e+00 0 0 0
40 1 1 -2.2365350580898366e-01 9.4218846902592031e+00 1.1289486953095453e+01 2.2111279186468535e+00 0 0 0
43 1 1 -2.2619763665509668e-01 8.7245663343235762e+00 1.3773201127119581e+01 1.0659137975855543e+01 0 0 0
47 1 1 -2.2664982172158835e-01 8.3913652947219237e+00 -2.8797471380056727e-02 1.0528629342212490e+01 0 0 0
59 1 1 -2.2110413239931895e-01 8.0241041985540580e+00 1.3828902747339255e+01 8.3036771784209371e+00 0 0 0
79 1 1 -2.2508870159622205e-01 7.3669998511810064e+00 1.0695978696166888e+00 1.0570628346791040e+01 0 0 0
84 1 1 -2.3049171021884404e-01 8.8600657171964166e+00 2.2387926716522664e+01 3.0515831429965115e+00 0 0 0
88 1 1 -2.2926272591809904e-01 8.6662456275002562e+00 8.6109929144942328e+00 3.2201595990794423e+00 0 0 0
100 1 2 2.7862025320273009e-01 9.0700586280898907e+00 2.3728940334678441e+01 6.0741481755020024e+00 0 0 0
104 1 2 2.7616255260657774e-01 9.0852059944222816e+00 1.0162799451675966e+01 6.1759110284823935e+00 0 0 0
111 1 2 2.7712690276119545e-01 8.6395059215492314e+00 1.4236975876633706e+00 6.5712660634707767e+00 0 0 0
136 1 2 2.6007318331355178e-01 9.6730557143574636e+00 1.1978161257744283e+01 1.3112089759896661e+00 0 0 0