ITEM: TIMESTEP
0
ITEM: NUMBER OF ATOMS
336
ITEM: BOX BOUNDS xy xz yz pp pp pp
0.0000000000000000e+00 2.6364000320399999e+01 0.0000000000000000e+00
0.0000000000000000e+00 1.1574000358599999e+01 0.0000000000000000e+00
0.0000000000000000e+00 1.0708999633800000e+01 0.0000000000000000e+00
ITEM: ATOMS id type xs ys zs
1 1 0.0925461 0.355819 0.444445
2 1 0.907454 0.644181 0.555555
3 1 0.157454 0.644181 0.944445
4 1 0.342546 0.355819 0.0555548
5 1 0.907454 0.855819 0.0555548
6 1 0.092546 0.144181 0.944445
7 1 0.342546 0.144181 0.555555
8 1 0.157454 0.855819 0.444445
9 1 0.592546 0.355819 0.444445
10 1 0.407454 0.644181 0.555555
11 1 0.657454 0.644181 0.944445
12 1 0.842546 0.355819 0.0555548
13 1 0.407454 0.855819 0.0555548
14 1 0.592546 0.144181 0.944445
15 1 0.842546 0.144181 0.555555
16 1 0.657454 0.855819 0.444445
17 1 0.024626 0.240745 0.339818
18 1 0.975374 0.759255 0.660182
19 1 0.225374 0.759255 0.839818
20 1 0.274626 0.240745 0.160182
21 1 0.975374 0.740745 0.160182
22 1 0.024626 0.259255 0.839818
23 1 0.274626 0.259255 0.660182
24 1 0.225374 0.740745 0.339818
25 1 0.524626 0.240744 0.339818
26 1 0.475374 0.759256 0.660182
27 1 0.725374 0.759256 0.839818
28 1 0.774626 0.240744 0.160182
29 1 0.475374 0.740744 0.160182
30 1 0.524626 0.259256 0.839818
31 1 0.774626 0.259256 0.660182
32 1 0.725374 0.740744 0.339818
33 1 0.074784 0.379398 0.210842
34 1 0.925216 0.620602 0.789158
35 1 0.175216 0.620602 0.710842
36 1 0.324784 0.379398 0.289158
37 1 0.925216 0.879398 0.289158
38 1 0.074784 0.120602 0.710842
39 1 0.324784 0.120602 0.789158
40 1 0.175216 0.879398 0.210842
41 1 0.574784 0.379398 0.210842
42 1 0.425216 0.620602 0.789158
43 1 0.675216 0.620602 0.710842
44 1 0.824784 0.379398 0.289158
45 1 0.425216 0.879398 0.289158
46 1 0.574784 0.120602 0.710842
47 1 0.824784 0.120602 0.789158
48 1 0.675216 0.879398 0.210842
49 2 0.123649 0.292031 0.424132
50 2 0.876351 0.707969 0.575868
51 2 0.126351 0.707969 0.924132
52 2 0.373649 0.292031 0.0758679
53 2 0.876351 0.792031 0.0758679
54 2 0.123649 0.207969 0.924132
55 2 0.373649 0.207969 0.575868
56 2 0.126351 0.792031 0.424132
57 2 0.623649 0.292031 0.424132
58 2 0.376351 0.707969 0.575868
59 2 0.626351 0.707969 0.924132
60 2 0.873649 0.292031 0.0758679
61 2 0.376351 0.792031 0.0758679
62 2 0.623649 0.207969 0.924132
63 2 0.873649 0.207969 0.575868
64 2 0.626351 0.792031 0.424132
65 2 0.102522 0.408196 0.530199
66 2 0.897478 0.591804 0.469801
67 2 0.147478 0.591804 0.0301987
68 2 0.352522 0.408196 0.969801
69 2 0.897478 0.908196 0.969801
70 2 0.102522 0.0918037 0.0301987
71 2 0.352522 0.0918037 0.469801
72 2 0.147478 0.908196 0.530199
73 2 0.602522 0.408196 0.530199
74 2 0.397478 0.591804 0.469801
75 2 0.647478 0.591804 0.0301987
76 2 0.852522 0.408196 0.969801
77 2 0.397478 0.908196 0.969801
78 2 0.602522 0.0918037 0.0301987
79 2 0.852522 0.0918037 0.469801
80 2 0.647478 0.908196 0.530199
81 2 0.985106 0.206313 0.354008
82 2 0.0148937 0.793687 0.645992
83 2 0.264894 0.793687 0.854008
84 2 0.235106 0.206313 0.145992
85 2 0.0148937 0.706313 0.145992
86 2 0.985106 0.293687 0.854008
87 2 0.235106 0.293687 0.645992
88 2 0.264894 0.706313 0.354008
89 2 0.485106 0.206313 0.354008
90 2 0.514894 0.793687 0.645992
91 2 0.764894 0.793687 0.854008
92 2 0.735106 0.206313 0.145992
93 2 0.514894 0.706313 0.145992
94 2 0.485106 0.293687 0.854008
95 2 0.735106 0.293687 0.645992
96 2 0.764894 0.706313 0.354008
97 2 0.0503827 0.166047 0.318362
98 2 0.949617 0.833953 0.681638
99 2 0.199617 0.833953 0.818362
100 2 0.300383 0.166047 0.181638
101 2 0.949617 0.666047 0.181638
102 2 0.0503827 0.333953 0.818362
103 2 0.300383 0.333953 0.681638
104 2 0.199617 0.666047 0.318362
105 2 0.550383 0.166047 0.318362
106 2 0.449617 0.833953 0.681638
107 2 0.699617 0.833953 0.818362
108 2 0.800383 0.166047 0.181638
109 2 0.449617 0.666047 0.181638
110 2 0.550383 0.333953 0.818362
111 2 0.800383 0.333953 0.681638
112 2 0.699617 0.666047 0.318362
113 2 0.105351 0.315244 0.187229
114 2 0.894649 0.684756 0.812771
115 2 0.144649 0.684756 0.687229
116 2 0.355351 0.315244 0.312771
117 2 0.894649 0.815244 0.312771
118 2 0.105351 0.184756 0.687229
119 2 0.355351 0.184756 0.812771
120 2 0.144649 0.815244 0.187229
121 2 0.605351 0.315244 0.187229
122 2 0.394649 0.684756 0.812771
123 2 0.644649 0.684756 0.687229
124 2 0.855351 0.315244 0.312771
125 2 0.394649 0.815244 0.312771
126 2 0.605351 0.184756 0.687229
127 2 0.855351 0.184756 0.812771
128 2 0.644649 0.815244 0.187229
129 2 0.0728287 0.446659 0.134266
130 2 0.927171 0.553341 0.865734
131 2 0.177171 0.553341 0.634266
132 2 0.322829 0.446659 0.365734
133 2 0.927171 0.946659 0.365734
134 2 0.0728287 0.0533406 0.634266
135 2 0.322829 0.0533406 0.865734
136 2 0.177171 0.946659 0.134266
137 2 0.572829 0.446659 0.134266
138 2 0.427171 0.553341 0.865734
139 2 0.677171 0.553341 0.634266
140 2 0.822829 0.446659 0.365734
141 2 0.427171 0.946659 0.365734
142 2 0.572829 0.0533406 0.634266
143 2 0.822829 0.0533406 0.865734
144 2 0.677171 0.946659 0.134266
145 3 0.0868723 0.43345 0.333678
146 3 0.913128 0.56655 0.666322
147 3 0.163128 0.56655 0.833678
148 3 0.336872 0.43345 0.166322
149 3 0.913128 0.93345 0.166322
150 3 0.0868723 0.0665503 0.833678
151 3 0.336872 0.0665503 0.666322
152 3 0.163128 0.93345 0.333678
153 3 0.586872 0.43345 0.333678
154 3 0.413128 0.56655 0.666322
155 3 0.663128 0.56655 0.833678
156 3 0.836872 0.43345 0.166322
157 3 0.413128 0.93345 0.166322
158 3 0.586872 0.0665502 0.833678
159 3 0.836872 0.0665502 0.666322
160 3 0.663128 0.93345 0.333678
161 3 0.0465843 0.282725 0.461078
162 3 0.953416 0.717275 0.538922
163 3 0.203416 0.717275 0.961078
164 3 0.296584 0.282724 0.0389218
165 3 0.953416 0.782724 0.0389219
166 3 0.0465843 0.217275 0.961078
167 3 0.296584 0.217275 0.538922
168 3 0.203416 0.782725 0.461078
169 3 0.546584 0.282724 0.461078
170 3 0.453416 0.717276 0.538922
171 3 0.703416 0.717276 0.961078
172 3 0.796584 0.282724 0.0389216
173 3 0.453416 0.782724 0.0389216
174 3 0.546584 0.217276 0.961078
175 3 0.796584 0.217276 0.538922
176 3 0.703416 0.782724 0.461078
177 3 0.0278727 0.308077 0.219771
178 3 0.972127 0.691923 0.780229
179 3 0.222127 0.691923 0.719771
180 3 0.277873 0.308077 0.28023
181 3 0.972127 0.808077 0.280229
182 3 0.0278727 0.191923 0.719771
183 3 0.277873 0.191923 0.780229
184 3 0.222127 0.808077 0.219771
185 3 0.527873 0.308077 0.21977
186 3 0.472127 0.691923 0.78023
187 3 0.722127 0.691923 0.71977
188 3 0.777873 0.308077 0.28023
189 3 0.472127 0.808077 0.28023
190 3 0.527873 0.191923 0.71977
191 3 0.777873 0.191923 0.78023
192 3 0.722127 0.808077 0.21977
193 3 0.11523 0.546122 0.335114
194 3 0.88477 0.453878 0.664886
195 3 0.13477 0.453878 0.835114
196 3 0.36523 0.546122 0.164886
197 3 0.88477 0.0461223 0.164886
198 3 0.11523 0.953878 0.835114
199 3 0.36523 0.953878 0.664886
200 3 0.13477 0.0461223 0.335114
201 3 0.61523 0.546122 0.335114
202 3 0.38477 0.453878 0.664886
203 3 0.63477 0.453878 0.835114
204 3 0.86523 0.546122 0.164886
205 3 0.38477 0.0461223 0.164886
206 3 0.61523 0.953878 0.835114
207 3 0.86523 0.953878 0.664886
208 3 0.63477 0.0461223 0.335114
209 3 0.00638597 0.353996 0.531107
210 3 0.993614 0.646004 0.468893
211 3 0.243614 0.646004 0.031107
212 3 0.256386 0.353996 0.968893
213 3 0.993614 0.853996 0.968893
214 3 0.00638598 0.146004 0.031107
215 3 0.256386 0.146004 0.468893
216 3 0.243614 0.853996 0.531107
217 3 0.506386 0.353996 0.531107
218 3 0.493614 0.646004 0.468893
219 3 0.743614 0.646004 0.0311072
220 3 0.756386 0.353996 0.968893
221 3 0.493614 0.853996 0.968893
222 3 0.506386 0.146004 0.0311072
223 3 0.756386 0.146004 0.468893
224 3 0.743614 0.853996 0.531107
225 3 0.981801 0.388899 0.206894
226 3 0.0181987 0.611101 0.793106
227 3 0.268199 0.611101 0.706894
228 3 0.231801 0.388899 0.293106
229 3 0.0181986 0.888899 0.293106
230 3 0.981801 0.111101 0.706894
231 3 0.231801 0.111101 0.793106
232 3 0.268199 0.888899 0.206894
233 3 0.481801 0.388899 0.206894
234 3 0.518199 0.611101 0.793106
235 3 0.768199 0.611101 0.706894
236 3 0.731801 0.388899 0.293106
237 3 0.518199 0.888899 0.293106
238 3 0.481801 0.111101 0.706894
239 3 0.731801 0.111101 0.793106
240 3 0.768199 0.888899 0.206894
241 4 0.115709 0.605412 0.233038
242 4 0.884291 0.394588 0.766962
243 4 0.134291 0.394588 0.733038
244 4 0.365709 0.605412 0.266962
245 4 0.884291 0.105412 0.266962
246 4 0.115709 0.894588 0.733038
247 4 0.365709 0.894588 0.766962
248 4 0.134291 0.105412 0.233038
249 4 0.615709 0.605412 0.233038
250 4 0.384291 0.394588 0.766962
251 4 0.634291 0.394588 0.733038
252 4 0.865709 0.605412 0.266962
253 4 0.384291 0.105412 0.266962
254 4 0.615709 0.894588 0.733038
255 4 0.865709 0.894588 0.766962
256 4 0.634291 0.105412 0.233038
257 4 0.135527 0.578072 0.438093
258 4 0.864473 0.421928 0.561907
259 4 0.114473 0.421928 0.938093
260 4 0.385527 0.578072 0.0619067
261 4 0.864473 0.0780716 0.0619067
262 4 0.135527 0.921928 0.938093
263 4 0.385527 0.921928 0.561907
264 4 0.114473 0.0780716 0.438093
265 4 0.635527 0.578072 0.438093
266 4 0.364473 0.421928 0.561907
267 4 0.614473 0.421928 0.938093
268 4 0.885527 0.578072 0.0619067
269 4 0.364473 0.0780716 0.0619067
270 4 0.635527 0.921928 0.938093
271 4 0.885527 0.921928 0.561907
272 4 0.614473 0.0780716 0.438093
273 4 0.960336 0.315385 0.531626
274 4 0.0396641 0.684615 0.468374
275 4 0.289664 0.684615 0.031626
276 4 0.210336 0.315385 0.968374
277 4 0.0396641 0.815385 0.968374
278 4 0.960336 0.184615 0.031626
279 4 0.210336 0.184615 0.468374
280 4 0.289664 0.815385 0.531626
281 4 0.460336 0.315385 0.531626
282 4 0.539664 0.684615 0.468374
283 4 0.789664 0.684615 0.031626
284 4 0.710336 0.315385 0.968374
285 4 0.539664 0.815385 0.968374
286 4 0.460336 0.184615 0.031626
287 4 0.710336 0.184615 0.468374
288 4 0.789664 0.815385 0.531626
289 4 0.0209291 0.434066 0.607651
290 4 0.979071 0.565934 0.392349
291 4 0.229071 0.565934 0.107651
292 4 0.270929 0.434066 0.892349
293 4 0.979071 0.934066 0.892349
294 4 0.0209291 0.0659336 0.107651
295 4 0.270929 0.0659336 0.392349
296 4 0.229071 0.934066 0.607651
297 4 0.520929 0.434066 0.607651
298 4 0.479071 0.565934 0.392349
299 4 0.729071 0.565934 0.107651
300 4 0.770929 0.434066 0.892349
301 4 0.479071 0.934066 0.892349
302 4 0.520929 0.0659337 0.107651
303 4 0.770929 0.0659337 0.392349
304 4 0.729071 0.934066 0.607651
305 4 0.938627 0.355817 0.251146
306 4 0.0613735 0.644183 0.748854
307 4 0.311373 0.644183 0.751146
308 4 0.188627 0.355817 0.248854
309 4 0.0613735 0.855817 0.248854
310 4 0.938627 0.144183 0.751146
311 4 0.188627 0.144183 0.748854
312 4 0.311373 0.855817 0.251146
313 4 0.438626 0.355817 0.251146
314 4 0.561373 0.644183 0.748854
315 4 0.811373 0.644183 0.751146
316 4 0.688627 0.355817 0.248854
317 4 0.561373 0.855817 0.248854
318 4 0.438627 0.144183 0.751146
319 4 0.688627 0.144183 0.748854
320 4 0.811373 0.855817 0.251146
321 4 0.985542 0.477702 0.133918
322 4 0.0144583 0.522298 0.866082
323 4 0.264458 0.522298 0.633918
324 4 0.235542 0.477702 0.366082
325 4 0.0144583 0.977702 0.366082
326 4 0.985542 0.0222981 0.633918
327 4 0.235542 0.0222981 0.866082
328 4 0.264458 0.977702 0.133918
329 4 0.485542 0.477702 0.133918
330 4 0.514458 0.522298 0.866082
331 4 0.764458 0.522298 0.633918
332 4 0.735542 0.477702 0.366082
333 4 0.514458 0.977702 0.366082
334 4 0.485542 0.0222981 0.633918
335 4 0.735542 0.0222981 0.866082
336 4 0.764458 0.977702 0.133918
ITEM: TIMESTEP
1000
ITEM: NUMBER OF ATOMS
336
ITEM: BOX BOUNDS xy xz yz pp pp pp
-4.3325914695680640e-01 2.6776693891453014e+01 4.7816477483400427e-02
-2.3299473025296891e-01 1.1977906895983825e+01 -6.8382053387083849e-02
-2.3656458123787072e-01 1.0945564215037869e+01 1.7091180713086496e-01
ITEM: ATOMS id type xs ys zs
1 1 0.0953716 0.352925 0.43076
2 1 0.9087 0.655218 0.531308
3 1 0.146982 0.656395 0.945971
4 1 0.350367 0.35645 0.0479889
5 1 0.917826 0.909631 0.065059
6 1 0.0893828 0.10347 0.953439
7 1 0.334461 0.118289 0.548059
8 1 0.172313 0.886747 0.452469
9 1 0.580759 0.38281 0.419785
10 1 0.410185 0.646597 0.580522
11 1 0.67339 0.56756 0.936558
12 1 0.830777 0.384624 0.0601885
13 1 0.392043 0.863399 0.0805808
14 1 0.584256 0.0940844 0.953785
15 1 0.845953 0.183223 0.580011
16 1 0.659055 0.829539 0.441977
17 1 0.0265305 0.258129 0.313753
18 1 0.968085 0.774086 0.662581
19 1 0.22437 0.739532 0.837098
20 1 0.275878 0.250132 0.135491
21 1 0.97252 0.771301 0.180876
22 1 0.0308564 0.236787 0.830556
23 1 0.28199 0.252462 0.664955
24 1 0.217178 0.751414 0.320997
25 1 0.523768 0.256315 0.314553
26 1 0.481739 0.737347 0.692493
27 1 0.717324 0.730423 0.842534
28 1 0.772873 0.273285 0.200115
29 1 0.467699 0.759618 0.182761
30 1 0.533297 0.221703 0.814411
31 1 0.768914 0.245206 0.707179
32 1 0.735571 0.753618 0.328863
33 1 0.0890762 0.378368 0.205729
34 1 0.908434 0.635264 0.754386
35 1 0.156325 0.638037 0.725723
36 1 0.32762 0.384822 0.264535
37 1 0.935141 0.939845 0.279037
38 1 0.0902457 0.115948 0.722713
39 1 0.328139 0.105652 0.778817
40 1 0.173325 0.916563 0.222942
41 1 0.559134 0.427212 0.20498
42 1 0.421463 0.6132 0.797324
43 1 0.690886 0.575569 0.716662
44 1 0.842474 0.388447 0.283531
45 1 0.40815 0.880133 0.299703
46 1 0.584522 0.0791951 0.718782
47 1 0.838981 0.123636 0.804153
48 1 0.669714 0.870538 0.219507
49 2 0.129008 0.299456 0.441911
50 2 0.877714 0.701907 0.490798
51 2 0.117383 0.722908 0.950562
52 2 0.38399 0.30556 0.0411931
53 2 0.881972 0.871675 0.0594157
54 2 0.118718 0.124128 0.0199755
55 2 0.365745 0.137606 0.486956
56 2 0.146093 0.863113 0.524191
57 2 0.609387 0.37491 0.489486
58 2 0.379549 0.711983 0.576753
59 2 0.634408 0.595425 0.929248
60 2 0.853345 0.364753 0.98173
61 2 0.358606 0.81022 0.0630591
62 2 0.613035 0.116061 0.0240794
63 2 0.874068 0.253132 0.577097
64 2 0.627842 0.767388 0.45106
65 2 0.101975 0.40339 0.51238
66 2 0.916192 0.590079 0.464577
67 2 0.142351 0.603199 0.022045
68 2 0.35671 0.405318 0.967394
69 2 0.916671 0.955728 0.979027
70 2 0.0790542 0.0234358 0.998019
71 2 0.320811 0.043113 0.499788
72 2 0.190273 0.956131 0.499565
73 2 0.562865 0.456882 0.459445
74 2 0.399312 0.609122 0.495393
75 2 0.671865 0.512265 0.0175924
76 2 0.81381 0.460968 0.0202564
77 2 0.389364 0.922321 0.00519064
78 2 0.565518 0.0239545 0.00683282
79 2 0.85325 0.148828 0.492061
80 2 0.652783 0.873503 0.526118
81 2 0.985633 0.251054 0.323888
82 2 0.00407707 0.819478 0.671536
83 2 0.263885 0.741145 0.845441
84 2 0.236101 0.235771 0.118735
85 2 0.00758085 0.726245 0.165192
86 2 0.992292 0.265515 0.828469
87 2 0.247248 0.305292 0.6591
88 2 0.252745 0.709856 0.316005
89 2 0.487584 0.223841 0.331797
90 2 0.521902 0.751934 0.681826
91 2 0.747744 0.790532 0.860472
92 2 0.733877 0.247686 0.20142
93 2 0.507162 0.736558 0.165243
94 2 0.496575 0.270169 0.807495
95 2 0.728197 0.242501 0.701034
96 2 0.77567 0.763994 0.342933
97 2 0.039481 0.173 0.299453
98 2 0.948 0.854368 0.672369
99 2 0.216659 0.828709 0.818364
100 2 0.292628 0.165273 0.15576
101 2 0.948827 0.702283 0.203535
102 2 0.0476405 0.32265 0.824156
103 2 0.311406 0.312051 0.684637
104 2 0.191301 0.686077 0.303197
105 2 0.545907 0.181719 0.28202
106 2 0.462459 0.817103 0.705852
107 2 0.687048 0.786845 0.813669
108 2 0.789127 0.189794 0.220051
109 2 0.450518 0.681487 0.212533
110 2 0.562343 0.289947 0.790898
111 2 0.777583 0.32833 0.733064
112 2 0.729438 0.663241 0.30469
113 2 0.116558 0.3182 0.16427
114 2 0.882485 0.701011 0.783109
115 2 0.129927 0.701954 0.701502
116 2 0.350791 0.332649 0.319346
117 2 0.901228 0.898529 0.312367
118 2 0.121199 0.158497 0.673658
119 2 0.357778 0.145543 0.83407
120 2 0.144224 0.914167 0.149476
121 2 0.57887 0.428633 0.117426
122 2 0.397261 0.673575 0.84463
123 2 0.653578 0.614536 0.690515
124 2 0.875637 0.337643 0.320554
125 2 0.385121 0.813486 0.331648
126 2 0.615509 0.111634 0.662987
127 2 0.864257 0.176371 0.858095
128 2 0.644329 0.805792 0.180481
129 2 0.0866856 0.444229 0.133883
130 2 0.905763 0.571151 0.827525
131 2 0.151463 0.581476 0.649809
132 2 0.321669 0.452354 0.33323
133 2 0.943351 0.00356181 0.346948
134 2 0.0829074 0.0461712 0.661918
135 2 0.324458 0.034922 0.84208
136 2 0.189382 0.999316 0.18786
137 2 0.539344 0.506037 0.194764
138 2 0.422187 0.545588 0.864752
139 2 0.697372 0.526988 0.636045
140 2 0.846327 0.452307 0.349914
141 2 0.403504 0.935357 0.377567
142 2 0.577965 0.00599227 0.662145
143 2 0.840591 0.0442102 0.860023
144 2 0.664213 0.937382 0.145127
145 3 0.108496 0.418702 0.32297
146 3 0.888691 0.597485 0.636326
147 3 0.132374 0.593213 0.838105
148 3 0.354986 0.42419 0.156531
149 3 0.921326 0.993709 0.160936
150 3 0.112853 0.0727759 0.8373
151 3 0.353418 0.0714053 0.666407
152 3 0.148991 0.931294 0.340423
153 3 0.597001 0.4293 0.302292
154 3 0.39572 0.579523 0.686741
155 3 0.678968 0.504375 0.82413
156 3 0.858675 0.429946 0.162186
157 3 0.381087 0.924895 0.194443
158 3 0.605076 0.0462663 0.843076
159 3 0.859165 0.103266 0.681395
160 3 0.645598 0.897399 0.333992
161 3 0.0475589 0.290985 0.436011
162 3 0.95424 0.728504 0.542681
163 3 0.197105 0.710112 0.951185
164 3 0.301638 0.292838 0.029513
165 3 0.953631 0.815114 0.063895
166 3 0.0475247 0.186883 0.94827
167 3 0.295934 0.208441 0.545604
168 3 0.208419 0.790997 0.44587
169 3 0.543028 0.295217 0.43223
170 3 0.459728 0.703115 0.574899
171 3 0.701431 0.671919 0.954545
172 3 0.78971 0.298948 0.0786199
173 3 0.439918 0.796639 0.0734311
174 3 0.545548 0.184133 0.94079
175 3 0.793353 0.225541 0.588757
176 3 0.709501 0.772263 0.444042
177 3 0.0382961 0.324654 0.205683
178 3 0.956524 0.696915 0.762461
179 3 0.208404 0.680569 0.727629
180 3 0.281138 0.315694 0.24796
181 3 0.974218 0.850365 0.282663
182 3 0.0425646 0.178149 0.716265
183 3 0.281948 0.175683 0.770269
184 3 0.214242 0.830921 0.214741
185 3 0.5224 0.333199 0.208685
186 3 0.47302 0.663051 0.795767
187 3 0.727809 0.667439 0.732701
188 3 0.79081 0.340327 0.299998
189 3 0.459872 0.833032 0.286635
190 3 0.538035 0.142984 0.713004
191 3 0.786833 0.16608 0.804793
192 3 0.721898 0.821929 0.222973
193 3 0.107886 0.545885 0.336497
194 3 0.888652 0.469379 0.626782
195 3 0.134555 0.466253 0.854246
196 3 0.357807 0.550758 0.135735
197 3 0.876524 0.0724899 0.167314
198 3 0.125942 0.949287 0.837781
199 3 0.365796 0.948078 0.659768
200 3 0.135698 0.0540302 0.354557
201 3 0.617525 0.548394 0.313346
202 3 0.394771 0.453443 0.664329
203 3 0.631767 0.436504 0.800445
204 3 0.863509 0.556915 0.150233
205 3 0.382176 0.0515037 0.173488
206 3 0.614306 0.922139 0.855043
207 3 0.86296 0.981421 0.648566
208 3 0.644517 0.024471 0.358304
209 3 0.00819672 0.357407 0.49802
210 3 0.999709 0.681148 0.485055
211 3 0.232281 0.642587 0.0299566
212 3 0.265982 0.363221 0.954231
213 3 0.998183 0.83569 0.980423
214 3 0.00332438 0.141923 0.0163799
215 3 0.252453 0.182876 0.463853
216 3 0.25712 0.825602 0.501714
217 3 0.500851 0.338031 0.511842
218 3 0.49818 0.641413 0.502586
219 3 0.744974 0.646923 0.0400642
220 3 0.745316 0.326514 0.998423
221 3 0.475681 0.858065 0.991231
222 3 0.500472 0.154432 0.0123254
223 3 0.759771 0.154429 0.511046
224 3 0.743298 0.835103 0.528478
225 3 0.999031 0.415206 0.189366
226 3 0.999458 0.612487 0.787159
227 3 0.24279 0.583256 0.701466
228 3 0.233035 0.374913 0.275352
229 3 0.0240675 0.907045 0.296964
230 3 0.999451 0.101777 0.688263
231 3 0.233611 0.11231 0.789115
232 3 0.261721 0.892742 0.193843
233 3 0.470619 0.381352 0.189423
234 3 0.512895 0.57478 0.809213
235 3 0.77811 0.610463 0.740112
236 3 0.753791 0.432381 0.326574
237 3 0.499173 0.924316 0.30228
238 3 0.493298 0.0666288 0.696488
239 3 0.751226 0.0671097 0.810039
240 3 0.758462 0.916181 0.206617
241 4 0.0972648 0.605269 0.244279
242 4 0.889676 0.407662 0.722144
243 4 0.134668 0.403646 0.760974
244 4 0.362344 0.612569 0.229059
245 4 0.874844 0.139466 0.256047
246 4 0.128767 0.89305 0.741677
247 4 0.357924 0.882957 0.750386
248 4 0.135464 0.121133 0.262312
249 4 0.611996 0.617108 0.225551
250 4 0.39316 0.386929 0.754183
251 4 0.628276 0.380054 0.701437
252 4 0.867055 0.615755 0.246275
253 4 0.382016 0.116343 0.263928
254 4 0.60171 0.859851 0.765665
255 4 0.865795 0.908134 0.735128
256 4 0.650764 0.0952386 0.272599
257 4 0.124312 0.598543 0.428397
258 4 0.871745 0.426453 0.528168
259 4 0.120243 0.41831 0.953569
260 4 0.374167 0.590939 0.0358377
261 4 0.853301 0.0943837 0.0673681
262 4 0.131083 0.895447 0.938168
263 4 0.379808 0.90712 0.558873
264 4 0.131186 0.095821 0.460049
265 4 0.63201 0.581684 0.418084
266 4 0.381326 0.412237 0.560829
267 4 0.603758 0.408542 0.887325
268 4 0.882027 0.599136 0.0521084
269 4 0.363368 0.0859513 0.0708087
270 4 0.625015 0.874368 0.958862
271 4 0.876325 0.943379 0.544195
272 4 0.626604 0.0625132 0.457372
273 4 0.96187 0.344694 0.474185
274 4 0.0442503 0.711314 0.51625
275 4 0.277917 0.676359 0.0476819
276 4 0.222529 0.324449 0.930353
277 4 0.0345019 0.767114 0.978805
278 4 0.960453 0.145756 0.965865
279 4 0.209906 0.22658 0.488121
280 4 0.295774 0.763285 0.48281
281 4 0.458293 0.288393 0.510259
282 4 0.540891 0.620541 0.546184
283 4 0.776882 0.724899 0.050783
284 4 0.700795 0.297149 0.0235403
285 4 0.523304 0.845557 0.00622396
286 4 0.457006 0.181002 0.96989
287 4 0.712607 0.170808 0.513996
288 4 0.787577 0.7987 0.539891
289 4 0.0213333 0.406457 0.595345
290 4 0.997994 0.622789 0.389951
291 4 0.216965 0.562282 0.0980488
292 4 0.280195 0.450099 0.89446
293 4 0.99834 0.913065 0.897447
294 4 0.0102219 0.095085 0.119814
295 4 0.257879 0.119434 0.37339
296 4 0.258009 0.897075 0.586008
297 4 0.511703 0.399494 0.601523
298 4 0.486306 0.615244 0.393214
299 4 0.746939 0.566378 0.117095
300 4 0.753154 0.391564 0.908089
301 4 0.460058 0.938999 0.925977
302 4 0.503529 0.110806 0.118579
303 4 0.779883 0.0834204 0.438992
304 4 0.729072 0.911586 0.600092
305 4 0.952631 0.395388 0.197597
306 4 0.04524 0.626863 0.75897
307 4 0.290853 0.589928 0.703144
308 4 0.191271 0.32753 0.25024
309 4 0.0634079 0.866526 0.248837
310 4 0.954749 0.138562 0.709765
311 4 0.195441 0.137847 0.722354
312 4 0.294114 0.906564 0.27756
313 4 0.434855 0.360628 0.262809
314 4 0.55844 0.593383 0.786777
315 4 0.810937 0.643904 0.816144
316 4 0.706596 0.416726 0.330091
317 4 0.542991 0.915294 0.256244
318 4 0.450655 0.108307 0.715541
319 4 0.703848 0.0827815 0.802845
320 4 0.806179 0.905697 0.219713
321 4 0.0114897 0.514718 0.152633
322 4 0.989716 0.528874 0.856195
323 4 0.223774 0.496093 0.65444
324 4 0.233127 0.461314 0.344908
325 4 0.0316362 0.976453 0.382689
326 4 0.00339372 0.0309715 0.601707
327 4 0.230324 0.0359536 0.871515
328 4 0.266641 0.940237 0.0880334
329 4 0.463415 0.433718 0.0885215
330 4 0.499472 0.474128 0.840324
331 4 0.791544 0.535446 0.665245
332 4 0.771537 0.528502 0.353862
333 4 0.48964 0.00355285 0.375239
334 4 0.500144 0.964943 0.664973
335 4 0.769098 0.971917 0.847081
336 4 0.740501 0.00266996 0.153858
ITEM: TIMESTEP
2000
ITEM: NUMBER OF ATOMS
336
ITEM: BOX BOUNDS xy xz yz pp pp pp
-9.5841210163866555e-02 2.6388711199299948e+01 -3.1863899741734751e-02
-2.7988753913878828e-01 1.2127061818865386e+01 -3.9266431522047750e-02
-7.2411639083313428e-01 1.1433116024633087e+01 2.7317392112665728e-01
ITEM: ATOMS id type xs ys zs
1 1 0.121789 0.324053 0.385746
2 1 0.898107 0.699914 0.570732
3 1 0.128062 0.686415 0.881932
4 1 0.371501 0.331183 0.0910854
5 1 0.912779 0.902497 0.074457
6 1 0.111974 0.176222 0.901489
7 1 0.369499 0.181776 0.61
8 1 0.150348 0.802473 0.403218
9 1 0.605246 0.315962 0.385538
10 1 0.389238 0.659726 0.601559
11 1 0.656014 0.588554 0.939276
12 1 0.837561 0.361152 0.0957819
13 1 0.365102 0.824181 0.130174
14 1 0.582025 0.130057 0.917673
15 1 0.853346 0.185184 0.598122
16 1 0.644905 0.80933 0.396441
17 1 0.0520765 0.254066 0.273943
18 1 0.969714 0.754625 0.700227
19 1 0.199342 0.758787 0.771617
20 1 0.293209 0.253023 0.179009
21 1 0.960728 0.775653 0.203516
22 1 0.0485251 0.265437 0.769964
23 1 0.289753 0.248601 0.712677
24 1 0.225504 0.737807 0.285556
25 1 0.526423 0.238453 0.280483
26 1 0.458887 0.729823 0.723914
27 1 0.710379 0.719522 0.817528
28 1 0.784727 0.2764 0.247662
29 1 0.444723 0.744919 0.214614
30 1 0.527837 0.199343 0.752676
31 1 0.792898 0.254279 0.735833
32 1 0.723738 0.76581 0.29405
33 1 0.100673 0.419708 0.20148
34 1 0.900618 0.634206 0.772206
35 1 0.147158 0.602214 0.697201
36 1 0.345597 0.384238 0.288964
37 1 0.935713 0.96438 0.26622
38 1 0.104641 0.107591 0.707369
39 1 0.346609 0.104136 0.801567
40 1 0.155924 0.862898 0.205538
41 1 0.587246 0.370436 0.182256
42 1 0.398429 0.58359 0.801364
43 1 0.677245 0.545756 0.747018
44 1 0.847341 0.430562 0.29785
45 1 0.394686 0.893286 0.318589
46 1 0.600522 0.0648526 0.713343
47 1 0.853638 0.104442 0.793016
48 1 0.659882 0.902257 0.207603
49 2 0.14938 0.261994 0.361978
50 2 0.869144 0.76293 0.578804
51 2 0.103178 0.759079 0.856691
52 2 0.399937 0.263666 0.106679
53 2 0.872495 0.884883 0.0946938
54 2 0.140127 0.24219 0.91224
55 2 0.395869 0.249152 0.634585
56 2 0.122073 0.733118 0.389416
57 2 0.636446 0.256166 0.377053
58 2 0.35889 0.721511 0.629218
59 2 0.61819 0.628845 0.925511
60 2 0.868909 0.299402 0.0804336
61 2 0.337012 0.758526 0.159798
62 2 0.61123 0.184185 0.955876
63 2 0.882444 0.256243 0.596842
64 2 0.617756 0.74089 0.371499
65 2 0.137567 0.346939 0.469758
66 2 0.88966 0.678339 0.482842
67 2 0.114976 0.665224 0.967553
68 2 0.383989 0.372905 0.0172334
69 2 0.908461 0.931327 0.98972
70 2 0.109028 0.135478 0.984174
71 2 0.382609 0.155294 0.525788
72 2 0.142257 0.831323 0.486795
73 2 0.614742 0.355738 0.463983
74 2 0.379986 0.633624 0.516311
75 2 0.652246 0.559068 0.0264216
76 2 0.833556 0.40168 0.0143264
77 2 0.34873 0.8495 0.0524536
78 2 0.56971 0.0824456 0.992269
79 2 0.855357 0.152705 0.516861
80 2 0.632928 0.82989 0.480945
81 2 0.0142945 0.213497 0.279861
82 2 0.0111049 0.747024 0.687502
83 2 0.236687 0.798176 0.772863
84 2 0.254699 0.231661 0.154637
85 2 0.992604 0.717549 0.208542
86 2 0.0106298 0.299101 0.766125
87 2 0.248278 0.26695 0.696964
88 2 0.266342 0.725816 0.288962
89 2 0.486733 0.221399 0.289785
90 2 0.498634 0.759464 0.730805
91 2 0.744643 0.769635 0.823547
92 2 0.74564 0.252398 0.264808
93 2 0.484143 0.72544 0.198245
94 2 0.486245 0.210311 0.736447
95 2 0.752642 0.278211 0.741653
96 2 0.766053 0.757543 0.30592
97 2 0.0751728 0.183117 0.245334
98 2 0.96196 0.83822 0.728683
99 2 0.177469 0.824015 0.726074
100 2 0.302953 0.169974 0.20849
101 2 0.932037 0.723214 0.24177
102 2 0.0715127 0.335947 0.737687
103 2 0.30481 0.327681 0.743742
104 2 0.216938 0.65657 0.25146
105 2 0.538783 0.157025 0.257489
106 2 0.440137 0.802607 0.753587
107 2 0.684401 0.788381 0.787615
108 2 0.801459 0.198271 0.274755
109 2 0.433548 0.666449 0.248738
110 2 0.541954 0.285927 0.725539
111 2 0.812997 0.328891 0.762865
112 2 0.718674 0.683721 0.25959
113 2 0.125477 0.386104 0.134325
114 2 0.877465 0.688231 0.81924
115 2 0.12464 0.634308 0.626552
116 2 0.370245 0.321267 0.327152
117 2 0.900331 0.940348 0.310506
118 2 0.133535 0.152348 0.658679
119 2 0.370431 0.158583 0.85287
120 2 0.131305 0.795891 0.171578
121 2 0.610013 0.308811 0.13521
122 2 0.368712 0.630065 0.845437
123 2 0.641178 0.566994 0.698908
124 2 0.881577 0.388913 0.34133
125 2 0.367448 0.849426 0.369453
126 2 0.632577 0.110269 0.674831
127 2 0.881183 0.149508 0.843774
128 2 0.638397 0.851549 0.149233
129 2 0.0965494 0.506871 0.173364
130 2 0.896028 0.55292 0.8164
131 2 0.151149 0.51661 0.672197
132 2 0.341141 0.454885 0.345766
133 2 0.948052 0.0358895 0.31605
134 2 0.101668 0.029798 0.66464
135 2 0.341709 0.0239463 0.842296
136 2 0.151509 0.939392 0.151196
137 2 0.587862 0.440936 0.125974
138 2 0.395887 0.507455 0.851117
139 2 0.688755 0.47804 0.697015
140 2 0.840751 0.510422 0.33589
141 2 0.401373 0.964945 0.370837
142 2 0.608677 0.982674 0.676406
143 2 0.854819 0.0185736 0.832463
144 2 0.656492 0.984328 0.167236
145 3 0.131522 0.418401 0.30817
146 3 0.882597 0.614923 0.656215
147 3 0.118925 0.595622 0.803469
148 3 0.375856 0.407367 0.187438
149 3 0.921549 0.997627 0.148963
150 3 0.1298 0.096383 0.819569
151 3 0.374803 0.0907511 0.694169
152 3 0.13733 0.888285 0.31882
153 3 0.612725 0.393881 0.287807
154 3 0.378919 0.570157 0.685337
155 3 0.665955 0.498212 0.861086
156 3 0.859717 0.439022 0.178597
157 3 0.368564 0.916801 0.211449
158 3 0.610083 0.0588585 0.836583
159 3 0.874533 0.103422 0.680476
160 3 0.632784 0.899485 0.317572
161 3 0.0722706 0.264544 0.388065
162 3 0.948078 0.756108 0.585188
163 3 0.17715 0.748208 0.885467
164 3 0.32243 0.273675 0.07426
165 3 0.944715 0.802175 0.0880887
166 3 0.0644886 0.244841 0.885351
167 3 0.317382 0.230576 0.607107
168 3 0.201371 0.748378 0.39813
169 3 0.556625 0.254709 0.387554
170 3 0.43889 0.718111 0.610637
171 3 0.689288 0.688521 0.929457
172 3 0.79125 0.297935 0.128039
173 3 0.413131 0.763583 0.112632
174 3 0.537363 0.191586 0.875238
175 3 0.804523 0.244865 0.614864
176 3 0.696898 0.762901 0.403462
177 3 0.0541324 0.348598 0.191982
178 3 0.953166 0.673108 0.787698
179 3 0.196462 0.666175 0.693103
180 3 0.294842 0.32873 0.273855
181 3 0.969213 0.867904 0.287099
182 3 0.0575912 0.175453 0.691639
183 3 0.296322 0.160536 0.79912
184 3 0.209964 0.817948 0.195842
185 3 0.533731 0.321746 0.190673
186 3 0.44767 0.644877 0.811552
187 3 0.714701 0.635094 0.729674
188 3 0.801904 0.362088 0.326345
189 3 0.443872 0.829546 0.301759
190 3 0.549972 0.111941 0.682659
191 3 0.804806 0.164079 0.815489
192 3 0.712344 0.856185 0.210388
193 3 0.123307 0.52648 0.363813
194 3 0.894037 0.498019 0.618201
195 3 0.127572 0.484006 0.860373
196 3 0.366814 0.52543 0.145728
197 3 0.88195 0.0885423 0.140167
198 3 0.119876 0.979613 0.862679
199 3 0.358257 0.983253 0.643556
200 3 0.158568 0.99658 0.362522
201 3 0.602315 0.509644 0.329461
202 3 0.389001 0.456907 0.638695
203 3 0.621873 0.417434 0.854123
204 3 0.856474 0.559785 0.137452
205 3 0.376712 0.0320596 0.156914
206 3 0.600522 0.942256 0.878332
207 3 0.87225 0.986274 0.634787
208 3 0.632745 0.0146498 0.368623
209 3 0.0343272 0.326611 0.45745
210 3 0.985702 0.705034 0.506736
211 3 0.214123 0.692205 0.96471
212 3 0.289353 0.326218 0.984453
213 3 0.989292 0.803509 0.00755551
214 3 0.0223115 0.195988 0.956413
215 3 0.282144 0.202595 0.510065
216 3 0.241049 0.789494 0.477691
217 3 0.521017 0.296344 0.475291
218 3 0.47867 0.668851 0.532307