LAMMPS data file via write_data, version 15 Apr 2020, timestep = 80000

336 atoms
4 atom types

-6.8986892269521860e-01 2.7053869243094560e+01 xlo xhi
2.3800420564791658e-01 1.1335996152952220e+01 ylo yhi
-1.1245019030720513e+00 1.1833501536872035e+01 zlo zhi
-8.4278921233657642e-02 -6.7725880632071691e+00 3.4275914854222173e-01 xy xz yz

Masses

1 12.0107
2 1.00794
3 14.0067
4 15.9994

Atoms # full

86 1 2 2.5017434281744999e-01 2.1598038374990878e+01 4.1917875292089057e+00 8.2069693609200822e+00 0 0 0
213 1 3 4.3957879901458907e-01 -1.4220446544426171e+00 9.7554734339922113e+00 9.5103379448607139e-01 1 0 1
1 1 1 5.6727025567343561e-02 1.6737579338002639e-01 4.2975396591252313e+00 3.1793690600681792e+00 0 0 0
3 1 1 5.0018618721264493e-02 -1.0496958066659499e+00 8.3130303429179033e+00 1.0523872917376231e+01 0 0 0
6 1 1 4.4521856214641227e-02 -3.7684006576727764e+00 2.5320368392847930e+00 1.0127329190290366e+01 0 0 0
8 1 1 6.3371712153436580e-02 2.4930954991693399e+00 9.0492996188943273e+00 3.6541957826052389e+00 0 0 0
19 1 1 4.1087361302272550e-02 4.7914625035729230e-01 9.7376098609735937e+00 9.0803582733210870e+00 0 0 0
22 1 1 4.4407735057638599e-02 -5.1397393981705699e+00 3.8549857924452779e+00 8.4493724038112923e+00 0 0 0
24 1 1 5.5483027989453759e-02 4.2620398236264236e+00 8.2703264134460568e+00 1.9293598755355048e+00 0 0 0
33 1 1 6.3609504268782771e-02 -5.4739591615358929e-01 3.2559894440403117e+00 9.1766183868532147e-01 0 0 0
35 1 1 4.4534704859210260e-02 -1.1524493820954538e+00 8.1689639182970186e+00 7.9224089826566626e+00 0 0 0
38 1 1 4.2817030707627657e-02 -3.2057896973050455e+00 2.3895559493773506e+00 7.7119081005231838e+00 0 0 0
40 1 1 6.0159748549171652e-02 2.1032551179294110e+00 9.3442635883886176e+00 1.2433111449893044e+00 0 0 0
49 1 2 2.5349419497978687e-01 1.0477942592854039e+00 3.7089813472156159e+00 3.5404116426939396e+00 0 0 0
51 1 2 2.1693562396551749e-01 -1.8835313249269614e+00 9.0302282305029529e+00 1.0707136176567635e+01 0 0 0
54 1 2 2.2085179179964359e-01 -3.1649888060910740e+00 3.3462432211241069e+00 1.0441578001573106e+01 0 0 0
56 1 2 2.1375951211338123e-01 1.9478688700489566e+00 8.0893167254425293e+00 3.7982835124361163e+00 0 0 0
65 1 2 2.0762900442651441e-01 4.7181412116788346e-01 5.2553313400958155e+00 3.6567759389368897e+00 0 0 0
67 1 2 2.4017096369932051e-01 -1.1094500416120843e+00 7.7606730190721747e+00 1.1456873244338677e+01 0 0 -1
70 1 2 2.2753094290818271e-01 -3.8812809061914333e+00 2.0578495139598081e+00 1.1101419011351609e+01 0 0 -1
72 1 2 2.6674936512989977e-01 2.3705515180561161e+00 9.5763816624427367e+00 4.6579229190013356e+00 0 0 0
84 1 2 2.3134752286905044e-01 4.0873939139135063e+00 2.8796591645458833e+00 1.0305870334629077e+00 0 0 0
87 1 2 2.5259849264076695e-01 8.4033756946527305e-01 4.2753283674440743e+00 9.2547724454605067e+00 0 0 0
97 1 2 2.5044655958569606e-01 -9.2319766197871722e-01 1.6905630469806576e+00 3.4603749888320445e+00 0 0 0
99 1 2 2.3113532620943858e-01 -2.7468560598213010e-02 1.0753150882525317e+01 9.0048908541875523e+00 0 0 0
102 1 2 2.3023341687152710e-01 -4.5626419043934678e+00 4.8063909774094506e+00 8.6008962721047144e+00 0 0 0
104 1 2 2.4025149750561564e-01 3.9206919126649815e+00 7.2069248709829381e+00 1.8340546590405373e+00 0 0 0
113 1 2 2.4489564411554524e-01 2.9642123182320690e-01 2.5304504960237182e+00 6.5162476716468842e-01 0 0 0
115 1 2 2.6938413321177662e-01 -1.8302866992069289e+00 8.9009088421889011e+00 7.5049203189897717e+00 0 0 0
118 1 2 2.4082221434009732e-01 -2.3528849153309008e+00 3.1593433037670215e+00 7.6827879937484678e+00 0 0 0
120 1 2 2.5069364902407604e-01 1.3694721125208538e+00 8.5746595486259451e+00 8.8470923056870854e-01 0 0 0
129 1 2 2.5385648947705713e-01 -8.4820584969269819e-01 3.6789894544604991e+00 -9.5468948693603783e-02 0 0 0
131 1 2 2.4251431782720748e-01 -1.1331661708634102e+00 7.3908990509766488e+00 7.1023545748808914e+00 0 0 0
134 1 2 2.4616601970751212e-01 -2.9788831096782209e+00 1.7100775704205560e+00 6.8772429809647342e+00 0 0 0
136 1 2 2.4515019652766562e-01 1.7923074308488784e+00 1.0143695224820263e+01 5.0625135993292281e-01 0 0 0
145 1 3 -2.7479367754937734e-01 1.5930867132788107e-01 4.3166023278716743e+00 1.6643545179673973e+00 0 0 0
147 1 3 -2.2692043572836140e-01 -1.5602281955341706e+00 7.6554959493723285e+00 9.2484879213350286e+00 0 0 0
150 1 3 -2.6213730382848260e-01 -3.0401514410016914e+00 1.7618796103434775e+00 9.0674094110914201e+00 0 0 0
152 1 3 -2.9389771327741054e-01 1.7362091318363442e+00 9.7939687016357162e+00 2.6400298534656055e+00 0 0 0
161 1 3 -2.6870152812749720e-01 -1.0479144942111223e+00 3.6732199916960031e+00 3.8000867504335716e+00 0 0 0
163 1 3 -2.7022407618914640e-01 2.2999109985042310e-01 9.0120147604337610e+00 1.0436260211758411e+01 0 0 0
166 1 3 -2.9214104369806121e-01 -5.0570799520241625e+00 3.2247537742486259e+00 9.8113754578108754e+00 0 0 0
168 1 3 -2.5423681764853767e-01 3.9169628926220454e+00 8.6500382112211174e+00 3.3693717839327446e+00 0 0 0
179 1 3 -2.5264566118880960e-01 1.0570061807975417e-01 9.0280711847388808e+00 7.8245445424545501e+00 0 0 0
180 1 3 -2.4325677924874362e-01 5.3012651147845871e+00 2.8089840439745850e+00 2.7323003181457577e+00 0 0 0
182 1 3 -2.5094384655184115e-01 -4.4394418687833070e+00 3.0940757227563740e+00 7.2921128430401989e+00 0 0 0
184 1 3 -2.7412862019577589e-01 3.5067936681977812e+00 9.0146249996942007e+00 8.8916658659085934e-01 0 0 0
193 1 3 4.5112404737763750e-01 -3.4787580834527643e-01 5.6926590553008847e+00 1.2314659860975419e+00 0 0 0
195 1 3 4.6829447193048795e-01 -1.3574142420327995e+00 6.1576357841176801e+00 9.2263828752655428e+00 0 0 0
198 1 3 5.1204818299346211e-01 -3.6739400662952812e+00 1.1425223491250975e+01 9.0408213403534869e+00 0 0 0
200 1 3 5.0202526668245950e-01 1.9340048071944578e+00 1.1308559224335692e+01 2.8042400690167142e+00 0 -1 0
214 1 3 5.4085376009380270e-01 -6.3161420345939998e+00 2.4728210396327519e+00 1.0197089666960913e+01 0 0 -1
215 1 3 4.9468410419329301e-01 1.1223124953380337e+00 3.1721851451120857e+00 6.9236547822221564e+00 0 0 0
226 1 3 4.7054779205052022e-01 -5.4426608843889852e+00 7.6876094339584027e+00 9.6806143205832136e+00 0 0 0
227 1 3 4.8335795357633415e-01 1.2280903354188082e+00 8.1000003249896899e+00 7.3654250894331508e+00 0 0 0
228 1 3 4.8872826424276056e-01 4.1374983502459912e+00 3.5951586021904798e+00 3.2997647128346372e+00 0 0 0
229 1 3 5.0188269332864366e-01 -2.6526498043063844e+00 1.0136538448590542e+01 4.8152717084045831e+00 0 0 0
232 1 3 4.8645049210964830e-01 4.2469129771666285e+00 1.0291225697460487e+01 3.9036377543506640e-01 0 0 0
241 1 4 -3.7504477966699523e-01 5.4816500628244724e-01 6.6070942301326205e+00 1.0263853833745737e+00 0 0 0
243 1 4 -3.5632139968558713e-01 -1.6068649572212017e+00 5.4927802095290534e+00 1.0320485173198401e+01 0 0 0
246 1 4 -4.1555074732045100e-01 -2.9745390616701575e+00 1.0527433324966500e+01 8.4145663659092840e+00 0 0 0
248 1 4 -4.0228942385620392e-01 2.4433578061499484e+00 9.5605992960911201e-01 1.8401858653621881e+00 0 0 0
257 1 4 -3.3801029694382051e-01 -1.5901743007107054e+00 5.8951215209212018e+00 9.2578588700745046e-01 0 0 0
259 1 4 -3.9640336732993292e-01 -1.2281053910632638e+00 5.4897814187779161e+00 8.1161475008952131e+00 0 0 0
262 1 4 -3.6546441485228898e-01 -4.7423645809304560e+00 1.1143366781479392e+01 9.6579496500844932e+00 0 0 0
264 1 4 -3.3897135697240977e-01 1.4874617633293745e+00 7.3194284267597309e-01 3.8673550591586876e+00 0 0 0
279 1 4 -3.4241861840107624e-01 2.7128578172502493e-01 2.4515493373129438e+00 7.5731903007993786e+00 0 0 0
295 1 4 -3.6143579605857556e-01 9.8768323198856667e-01 3.3334111842631016e+00 5.6587507437679241e+00 0 0 0
306 1 4 -3.8879698555115438e-01 -4.5473103952751028e+00 7.3434201070924638e+00 8.8015508555462372e+00 0 0 0
307 1 4 -3.7294016200337715e-01 1.4413385023123926e+00 7.0441254110132814e+00 8.0803919012615797e+00 0 0 0
308 1 4 -3.9457174570141063e-01 3.6165545056117834e+00 4.5898355593971312e+00 2.6550643915453831e+00 0 0 0
309 1 4 -3.9937254046718651e-01 -1.5990345734411449e+00 9.6852978652504262e+00 5.3810042402628513e+00 0 0 0
311 1 4 -3.6240367855273298e-01 1.9278809473801051e-01 2.5006124404768819e+00 1.0312993971775704e+01 0 0 0
312 1 4 -3.8450217033257317e-01 5.3976252714721928e+00 1.0576374115566038e+01 8.8438035363786582e-01 0 0 0
322 1 4 -3.0667545064469270e-01 -5.2994083686996634e+00 7.4705211488700938e+00 1.0946418345017983e+01 0 0 0
323 1 4 -3.9178703183160768e-01 1.8024345705170406e+00 8.3202568849522134e+00 6.2018176810121028e+00 0 0 0
324 1 4 -3.6897404107927667e-01 3.9019646018298939e+00 3.4554808537388060e+00 4.5793900077876613e+00 0 0 0
325 1 4 -4.1302862472040264e-01 -2.9324262229122473e+00 1.1413057956634102e+01 4.8760647340911669e+00 0 0 0
209 1 3 4.9589062604491074e-01 -2.0459362516526687e+00 4.7228929703412339e+00 4.3107296199221787e+00 0 0 0
17 1 1 4.6983667247071759e-02 -1.6377628670828410e+00 2.5270996897208953e+00 3.0423555671937086e+00 0 0 0
85 1 2 2.0372991060164056e-01 -1.5052987893191050e+00 8.5233469140955034e+00 3.1271874612468675e+00 0 0 0
181 1 3 -2.5827189907416853e-01 2.4307590157369535e+01 9.1731169105387504e+00 3.9142487033260682e+00 0 0 0
273 1 4 -3.5629003230737727e-01 -3.2759506575662183e+00 4.3812528860912394e+00 4.6186738264257157e+00 1 0 0
177 1 3 -2.4473735985944634e-01 -1.6215107280358010e+00 2.4373484614623395e+00 1.5600711438445227e+00 0 0 0
20 1 1 4.2922500566444734e-02 5.1763825430034185e+00 2.8419982448626224e+00 1.2632558624635588e+00 0 0 0
23 1 1 3.6790824507644170e-02 1.8828578184978086e+00 4.2002583946754974e+00 9.1143726898790565e+00 0 0 0
36 1 1 5.1500491919469663e-02 6.6378278912855535e+00 3.3670608803068940e+00 3.2540146184469636e+00 0 0 0
71 1 2 2.6081734155693581e-01 3.4904656526123397e+00 2.6844823104648787e+00 6.4924911111325363e+00 0 0 0
83 1 2 2.5224880544518696e-01 1.5578690213217206e+00 1.0011925589789588e+01 9.0458931079792340e+00 0 0 0
88 1 2 2.4641869661232246e-01 5.3705934440657330e+00 8.2576598947444335e+00 1.7443425401671870e+00 0 0 0
100 1 2 2.4587431423708345e-01 5.6436287069002651e+00 1.8879832031870609e+00 9.1029181084131139e-01 0 0 0
103 1 2 2.7150859839142222e-01 2.2500907352056210e+00 5.1558361449191370e+00 9.2546106139278255e+00 0 0 0
116 1 2 2.6038178569298920e-01 7.3113626367442954e+00 2.5421781203051070e+00 3.5553384776909835e+00 0 0 0
132 1 2 2.4254383646008082e-01 6.3603147369468847e+00 3.7768845050323367e+00 4.2571675385138885e+00 0 0 0
164 1 3 -2.9460886293996935e-01 5.8589466670715300e+00 3.8367836228466143e+00 3.9425365958202874e-01 0 0 0
167 1 3 -2.2276883570409572e-01 2.2351428617050377e+00 3.9021439264421529e+00 7.6897070752432573e+00 0 0 0
183 1 3 -2.4737256925667078e-01 2.4583190594210063e+00 3.3907062992310020e+00 1.0241827242179577e+01 0 0 0
211 1 3 4.9963555927257219e-01 1.4271508956771388e+00 8.1396364695996724e+00 1.0779326916251138e+01 0 0 -1
212 1 3 5.1534530918219223e-01 5.0754342306767892e+00 5.1440200200527233e+00 3.1333844530822241e-01 0 0 1
216 1 3 4.8343302121909731e-01 4.8439879856997923e+00 9.7494700415505378e+00 3.8497760079387193e+00 0 0 0
231 1 3 4.6045560726286833e-01 1.4586698347332954e+00 2.3125941780114418e+00 1.0643693333814630e+01 0 0 0
244 1 4 -4.1433295526381297e-01 7.8576378652223928e+00 6.7591537502189496e+00 2.4641548284838071e+00 0 0 0
247 1 4 -3.6609886112628770e-01 2.7622993303894789e+00 6.2850996588636376e-01 7.8115284254786204e+00 0 1 0
275 1 4 -4.3662079036686996e-01 2.5794045255866678e+00 8.7109883591379695e+00 1.0657711748155409e+01 0 0 -1
276 1 4 -4.6964413874068517e-01 5.7333201653949164e+00 6.2687498688611916e+00 3.7775403085017945e-01 0 0 1
280 1 4 -3.2872579866223089e-01 4.3755327331823519e+00 1.0914654333290441e+01 4.1721669531299073e+00 0 0 0
291 1 4 -4.0056911978634230e-01 1.3235282372684321e+00 6.8654536498768906e+00 1.1065823071471053e+01 0 0 -1
296 1 4 -3.9112634938625979e-01 6.1077816344291218e+00 9.4949519226466368e+00 3.8543498417911559e+00 0 0 0
327 1 4 -3.6396837648361136e-01 1.8368182386436169e+00 1.1907935141988579e+00 1.1159076593106741e+01 0 0 0
328 1 4 -4.1187404844488595e-01 3.7095975841721316e+00 1.1058236959201292e+01 -5.0362091005592102e-01 0 0 0
4 1 1 4.9119376077278495e-02 7.2148993448413892e+00 4.1099481051616706e+00 9.5331076785095004e-01 0 0 0
7 1 1 6.5429111975718407e-02 3.5274232108373313e+00 3.2115231228262546e+00 7.4552799443006936e+00 0 0 0
10 1 1 4.9231948040940963e-02 5.2356427214648589e+00 7.9223419245587747e+00 9.3581011861774464e+00 0 0 0
13 1 1 4.2024341739648918e-02 9.7812406558604721e+00 8.9234505144578957e+00 1.0376017121929766e+00 0 0 0
39 1 1 6.2476739438183444e-02 3.7944171449455588e+00 2.7546181243881769e+00 9.9846666640239281e+00 0 0 0
45 1 1 4.3725501981075943e-02 9.2872048162766667e+00 9.3088034918910179e+00 3.5265798787955038e+00 0 0 0
52 1 2 2.3079946696815151e-01 7.8265988656184273e+00 3.2519368169260301e+00 7.4382871838809361e-01 0 0 0
55 1 2 2.6063366781085484e-01 4.3451438279476529e+00 3.9300974275677394e+00 7.1865572930169268e+00 0 0 0
58 1 2 2.5516223618788475e-01 5.1223904880840019e+00 8.9780942075631778e+00 9.7343153434897847e+00 0 0 0
61 1 2 2.2937875301008051e-01 9.1868944735533233e+00 7.9930282793379615e+00 9.4515625479641319e-01 0 0 0
68 1 2 2.4478296081466103e-01 7.5763262658981985e+00 4.9268773226478109e+00 2.4634511089923872e-01 0 0 1
74 1 2 2.5252810020379596e-01 4.3908425459018368e+00 7.3887185576401784e+00 9.8790908530258541e+00 0 0 0
77 1 2 2.3072601779633339e-01 9.6689481535796133e+00 9.3915558310428580e+00 6.8553511447001059e-02 0 0 1
119 1 2 2.6094055107698755e-01 4.5250071790869972e+00 3.5335327076567911e+00 1.0268938627010627e+01 0 0 0
125 1 2 2.5936686934181846e-01 8.5599083905401958e+00 8.5039518150547302e+00 3.6421154417852177e+00 0 0 0
135 1 2 2.5293876273279819e-01 4.1281690698040903e+00 1.8794833361753347e+00 1.0622171642922426e+01 0 0 0
141 1 2 2.3259812740099992e-01 8.8984432983447821e+00 1.0174158425791546e+01 4.1247893173260826e+00 0 0 0
148 1 3 -2.5724565207083427e-01 7.4154651289014595e+00 4.3052305167214735e+00 2.4442477057642433e+00 0 0 0
151 1 3 -2.5702496892545368e-01 4.1840781304861245e+00 2.4315855068469006e+00 8.5759213188213437e+00 0 0 0
157 1 3 -2.5570691810246665e-01 9.0991365710692094e+00 9.7265678660626858e+00 2.0668339991551665e+00 0 0 0
170 1 3 -2.5081323447189335e-01 5.0511324630297834e+00 7.9977465758337543e+00 7.8638763407011361e+00 0 0 0
196 1 3 5.0865811756790758e-01 7.1214144986211672e+00 5.7743513805924023e+00 2.8408044809086848e+00 0 0 0
199 1 3 4.8024649641125516e-01 3.8778584183014599e+00 9.7372403167549371e-01 8.3540434689981993e+00 0 1 0
202 1 3 5.1474126577506296e-01 6.5910483451209361e+00 6.0441541819715914e+00 1.0322314954162731e+01 0 0 0
205 1 3 4.8791723325068409e-01 9.2519387718136148e+00 1.1240824992075327e+01 1.8279051825852939e+00 0 -1 0
218 1 3 4.8191831873534230e-01 4.5760165878031698e+00 6.6545541336574239e+00 7.3419671769166417e+00 0 0 0
250 1 4 -3.9869234391595709e-01 5.5860842606359684e+00 5.5657940383352811e+00 1.0991333461621361e+01 0 0 0
253 1 4 -3.8093493537620615e-01 8.3170100442377901e+00 9.1057512961223297e-01 1.9361474868085704e+00 0 0 0
260 1 4 -3.6446962575883368e-01 6.1794400149534958e+00 5.9650782304632290e+00 3.7106410720679959e+00 0 0 0
263 1 4 -3.5478333452456595e-01 4.5426762126763069e+00 1.1189531809282899e+01 8.9664218859882006e+00 0 0 0
269 1 4 -3.2381153873749707e-01 1.0485378551221910e+01 6.4251859028785785e-01 1.5191658769327376e+00 0 0 0
282 1 4 -4.3561802908051228e-01 4.1351035711784041e+00 5.7576022941849487e+00 8.1612037260691963e+00 0 0 0
292 1 4 -3.4692162881277117e-01 3.8700990335911873e+00 5.1580835293661380e+00 -1.6160031881901660e-01 0 0 1
298 1 4 -3.1508485859067559e-01 4.2837512844093837e+00 6.5599550581629265e+00 6.0763781140166202e+00 0 0 0
278 1 4 -4.2859189884742616e-01 -6.6411579314510751e+00 2.3344908987601305e+00 1.1432189022290796e+01 1 0 -1
293 1 4 -3.4584094610818539e-01 -7.6273814839794030e-01 9.2728505485566153e+00 -5.5422551871892045e-02 1 0 1
26 1 1 2.6557382057512631e-02 6.2662390674456452e+00 8.3563798136527669e+00 7.0826797618002200e+00 0 0 0
29 1 1 4.5867127271652472e-02 1.1453079401312197e+01 8.2162155141762767e+00 2.8177482874513760e+00 0 0 0
42 1 1 4.6099002950921127e-02 7.7326119821865289e+00 7.8457205324795840e+00 9.1327848427888991e+00 0 0 0
89 1 2 2.4223198606074842e-01 1.1210010986839293e+01 2.7296356354229978e+00 3.0433780410517066e+00 0 0 0
90 1 2 2.3007316492516855e-01 6.2695735094221359e+00 8.0558819420939258e+00 6.0726336200341233e+00 0 0 0
94 1 2 2.6435820186982417e-01 7.6319462053514764e+00 3.4633479321453531e+00 8.8512111508940485e+00 0 0 0
106 1 2 2.3147798617492782e-01 6.3425511501879912e+00 9.4445984413788491e+00 6.9484192893575454e+00 0 0 0
109 1 2 2.4179111861113564e-01 1.1236315972961082e+01 7.0917380174269997e+00 2.7956447625561944e+00 0 0 0
122 1 2 2.3861030496319235e-01 7.8500539322395486e+00 8.9225001170075871e+00 9.3895253096259523e+00 0 0 0
138 1 2 2.4714368461861086e-01 8.6293265721822188e+00 7.2704445769435440e+00 9.3995934169758453e+00 0 0 0
154 1 3 -2.7647408794062095e-01 6.5443552377789143e+00 7.5265961193814226e+00 9.9797105410323503e+00 0 0 0
173 1 3 -2.4947169858328266e-01 1.1216087740616073e+01 8.4798803831145495e+00 1.3586212424742778e+00 0 0 0
186 1 3 -2.5734527336180446e-01 7.6034732424297227e+00 7.8932177886722172e+00 7.6291439544713011e+00 0 0 0
189 1 3 -2.3840288215095259e-01 1.0692476035028832e+01 8.9331410231374395e+00 3.9063285507876380e+00 0 0 0
221 1 3 4.6005463818922909e-01 1.2234186287239293e+01 9.4991621348078468e+00 9.3532115645071201e-01 0 0 1
233 1 3 4.8211805215745163e-01 1.1156300148587183e+01 4.0120955205985407e+00 8.3574555255511429e-01 0 0 0
234 1 3 4.7344050034119611e-01 8.0771914763152033e+00 6.6279544297515356e+00 6.9374429367899264e+00 0 0 0
237 1 3 4.8312706528732252e-01 1.1514262309867991e+01 1.0125009549523067e+01 4.3693263625487253e+00 0 0 0
238 1 3 4.8946092810197273e-01 7.8670033698333706e+00 2.0530744832419612e+00 6.5453463275170867e+00 0 0 0
266 1 4 -4.3331366395849874e-01 7.6024446485153048e+00 5.3098856573641946e+00 9.9609270288318861e+00 0 0 0
297 1 4 -4.2530842896427562e-01 1.2513409120301571e+01 5.7510149844592950e+00 5.0630951319285806e+00 0 0 0
301 1 4 -3.2142240453404469e-01 1.2571205363919237e+01 9.5781880779796715e+00 -3.2675778587536064e-01 0 0 1
302 1 4 -3.8638021395102334e-01 6.8083883704394657e+00 1.9886077013546555e+00 1.0322556084262644e+01 0 0 -1
313 1 4 -3.8304154306650201e-01 1.0570280679799829e+01 4.8901494922951168e+00 1.5788990648108912e+00 0 0 0
318 1 4 -4.0543434163857967e-01 8.0661693625186857e+00 1.5189125348441461e+00 5.3891464087460497e+00 0 0 0
330 1 4 -3.2185536796462333e-01 8.8163873253130980e+00 6.8274542696956217e+00 5.8874726899828067e+00 0 0 0
333 1 4 -3.9432926958357850e-01 1.1118086021690759e+01 1.1335115172051005e+01 4.0981338408169581e+00 0 0 0
334 1 4 -3.6506621560091423e-01 6.6561519080470335e+00 2.1092188259616527e+00 6.9993084355669559e+00 0 0 0
294 1 4 -3.9558195297675097e-01 2.0700035046123752e+01 1.9967480192035310e+00 9.2265691619906267e+00 -1 0 -1
133 1 2 2.3988789354067497e-01 2.2488347993899261e+01 1.0365468873327085e+01 4.1805265528877813e+00 0 0 0
82 1 2 2.5128916819407615e-01 -5.2851827244992418e+00 8.9940299276067694e+00 7.5708663780897734e+00 0 0 0
290 1 4 -3.7239997003326708e-01 2.2527962028955749e+01 7.6816982231861433e+00 5.5327612420460772e+00 0 0 0
2 1 1 5.5588487539125458e-02 1.9167774851006435e+01 7.8653170857951586e+00 7.0619547515469527e+00 0 0 0
5 1 1 4.8932343051427976e-02 2.3826083084294506e+01 9.9097376014514857e+00 1.0188266941318589e+00 0 0 0
9 1 1 4.5400419763304126e-02 1.4225296068196384e+01 4.4342046682728444e+00 3.4349636131474979e+00 0 0 0
11 1 1 5.3452585403696143e-02 1.3338253544983754e+01 7.8042238410496685e+00 1.0082246692687633e+01 0 0 0
12 1 1 5.4254630149393551e-02 2.1222220514412442e+01 3.7689505496749138e+00 7.1040993923260243e-01 0 0 0
14 1 1 5.3326793845503775e-02 1.0458961428754014e+01 1.5049683724662435e+00 9.6265955616963144e+00 0 0 0
15 1 1 4.0089624599149110e-02 1.6674436934448551e+01 2.8033460319395895e+00 6.7253430634805333e+00 0 0 0
16 1 1 4.7642534695654035e-02 1.5665188398302771e+01 9.7123980002453010e+00 1.0367421758925657e+00 0 0 0
25 1 1 5.8134676997139187e-02 1.2275055468763512e+01 2.8890753172802941e+00 2.7339277586153412e+00 0 0 0
27 1 1 3.7468015251511146e-02 1.4531602464488099e+01 8.9223991825354982e+00 8.1704212635218596e+00 0 0 0
28 1 1 6.3268683925461033e-02 1.9038735339774391e+01 3.0330822650577618e+00 1.7034528402247133e+00 0 0 0
30 1 1 7.3069294761912137e-02 8.7182531770814009e+00 3.1233447366754987e+00 8.6940414158044774e+00 0 0 0
31 1 1 4.0425859390928839e-02 1.5759095857519355e+01 3.8671325458037105e+00 8.8504187624270632e+00 0 0 0
32 1 1 5.5700374008211109e-02 1.6261318055653120e+01 9.4525384565890445e+00 3.4855127965837989e+00 0 0 0
41 1 1 5.2014075734769669e-02 1.3697386286370104e+01 3.9380988240902868e+00 9.8601128590265219e-01 0 0 0
43 1 1 4.9772801374675157e-02 1.3114678343321270e+01 6.8269561085985995e+00 7.7640918691642398e+00 0 0 0
44 1 1 5.1885940354480020e-02 2.0646027102418852e+01 4.4170609625333528e+00 3.1165481389899030e+00 0 0 0
46 1 1 3.7765090501039093e-02 1.0211191947212559e+01 1.7958860917276747e+00 7.1605305283305629e+00 0 0 0
47 1 1 4.4558082746326708e-02 1.7785157357695685e+01 2.4162545085796134e+00 9.0067977221071125e+00 0 0 0
48 1 1 3.5889669635610535e-02 1.8007688677099804e+01 8.8437120162005964e+00 1.7056871608722926e+00 0 0 0
50 1 2 2.3944738976889601e-01 1.8408436061960820e+01 8.6874023407706868e+00 7.0878820141312229e+00 0 0 0
53 1 2 2.4166900057128404e-01 2.3102389120374159e+01 9.2463290674589445e+00 4.8502996330318693e-01 0 0 0
57 1 2 2.2039328434598354e-01 1.5098830623589976e+01 3.8358820595050176e+00 3.7076373745999662e+00 0 0 0
59 1 2 2.3502957830002441e-01 1.2506125964654583e+01 8.5359896608168437e+00 1.0145146578393890e+01 0 0 0
60 1 2 2.7052091927232136e-01 2.2002061424375007e+01 2.9610971208790513e+00 7.1722376394906617e-01 0 0 0
62 1 2 2.4976857201109073e-01 1.1301208993028698e+01 2.1984489249096102e+00 9.7401763003158557e+00 0 0 0
63 1 2 2.5505534803759855e-01 1.7197714943756466e+01 3.6330082373601265e+00 6.2578470745372545e+00 0 0 0
64 1 2 2.3067481886688140e-01 1.5062888398420753e+01 8.8438325455834761e+00 8.9539247387387366e-01 0 0 0
66 1 2 2.4664842448096705e-01 1.8738911385877486e+01 7.2286396384754612e+00 6.2835714511354626e+00 0 0 0
69 1 2 2.1817867468718133e-01 2.4011889495624484e+01 1.0660302953470921e+01 2.3472943544098901e-01 0 0 1
73 1 2 2.5578003568567687e-01 1.4311545222633500e+01 5.4036769318728961e+00 3.9803252491032426e+00 0 0 0
75 1 2 2.3850217504363144e-01 1.3588425298889369e+01 7.5204474428283463e+00 1.1136009020483588e+01 0 0 -1
76 1 2 2.3119574678424923e-01 2.1457341778110937e+01 4.1780694864064749e+00 -2.4888518896537803e-01 0 0 1
78 1 2 2.3868159655050813e-01 1.0511730293923790e+01 8.5022395693245856e-01 1.0514043896333442e+01 0 0 -1
79 1 2 2.5003144288972928e-01 1.6315087445787942e+01 2.1724367134626563e+00 5.9327050800820587e+00 0 0 0
80 1 2 2.3368510113043953e-01 1.5179849630364053e+01 1.0341097721864392e+01 2.5293585286373177e-01 0 0 0
91 1 2 2.3095880147919573e-01 1.5540789168133168e+01 9.3102707764439820e+00 7.9074904242955704e+00 0 0 0
92 1 2 2.4347820216128291e-01 1.7963918727877338e+01 2.9352394768053989e+00 1.5201795701635712e+00 0 0 0
93 1 2 2.4480608486274133e-01 1.2554749636307164e+01 8.2969150849819471e+00 3.0426636426308766e+00 0 0 0
95 1 2 2.3422342391923576e-01 1.4819260658241493e+01 4.2780072967853995e+00 9.3356332409173586e+00 0 0 0
96 1 2 2.6322852827364296e-01 1.6211979464023365e+01 1.0100755804362214e+01 4.3945733383307450e+00 0 0 0
105 1 2 2.5999716940870149e-01 1.2697924489857193e+01 1.8803893072451165e+00 2.8161100590267973e+00 0 0 0
107 1 2 2.3813758809444602e-01 1.3926447989713125e+01 9.8010254844298821e+00 7.8878238841832164e+00 0 0 0
108 1 2 2.6161641335922342e-01 1.9281613787848297e+01 1.9952946453816418e+00 2.0794834286742896e+00 0 0 0
110 1 2 2.8039454087447729e-01 9.1403208975135470e+00 4.1567834982636125e+00 8.9206124447013107e+00 0 0 0
111 1 2 2.3560515932714832e-01 1.6244796913777883e+01 4.8204260900464311e+00 8.7756950957141893e+00 0 0 0
112 1 2 2.5860705840242232e-01 1.5779132329779276e+01 8.5463919957484258e+00 3.7189913976026139e+00 0 0 0
114 1 2 2.3772837383335640e-01 1.9115484705220421e+01 8.8211961304308684e+00 9.6374758492527519e+00 0 0 0
117 1 2 2.5491270100211316e-01 2.2456942212330297e+01 8.8895019867620206e+00 3.3744866462910821e+00 0 0 0
121 1 2 2.4551910723538189e-01 1.4403092651933832e+01 3.1523001959741483e+00 6.8026095444476664e-01 0 0 0
123 1 2 2.3752998849465543e-01 1.2160984690011109e+01 7.2389890394654657e+00 7.3588317249767119e+00 0 0 0
124 1 2 2.4373287603914523e-01 2.1238006739745963e+01 3.5719163492351731e+00 3.5993124724771022e+00 0 0 0
126 1 2 2.4260676209444976e-01 1.1008765623733440e+01 2.5355624612364629e+00 7.0579550941621552e+00 0 0 0
127 1 2 2.5527145395921774e-01 1.8599494198239430e+01 3.1911468816718407e+00 8.9954123817337468e+00 0 0 0
128 1 2 2.4221807111271509e-01 1.8174439270477496e+01 7.7543634044527359e+00 1.5722037242770797e+00 0 0 0
137 1 2 2.4293869690774783e-01 1.3561490395951116e+01 4.4816727380213379e+00 6.0491104455833611e-02 0 0 0
139 1 2 2.4295566578859623e-01 1.3157114844324925e+01 5.8276863976188338e+00 7.3179499503416761e+00 0 0 0
140 1 2 2.3212798612427310e-01 2.0672359481142635e+01 5.2004916455602475e+00 3.8386438665121876e+00 0 0 0
142 1 2 2.3298604270589326e-01 1.0233041473527269e+01 1.2253438242568722e+00 6.2313336769836702e+00 0 0 0
143 1 2 2.2965088074432943e-01 1.8191613824720775e+01 1.5337103637759770e+00 9.4704875583899408e+00 0 0 0
144 1 2 2.3412219033630391e-01 1.9008269873255944e+01 9.2594998137630427e+00 1.5520086477584814e+00 0 0 0
146 1 3 -3.1494752045183166e-01 1.8946946639437876e+01 7.3189828780947837e+00 8.4524894165267526e+00 0 0 0
149 1 3 -2.5610583589221136e-01 2.2970253641990311e+01 1.0487869034789380e+01 2.1015378385797483e+00 0 0 0
153 1 3 -2.6842282231196390e-01 1.4472866088536644e+01 4.7529194638117715e+00 1.9733200067482706e+00 0 0 0
155 1 3 -2.4543378206805205e-01 1.2898473687348398e+01 6.6564639998160162e+00 9.2295926156962018e+00 0 0 0
156 1 3 -2.7339397701522122e-01 2.1430327558131395e+01 4.6888944461246398e+00 1.8803107017928369e+00 0 0 0
158 1 3 -2.7246334316263998e-01 1.0754065145639919e+01 9.3354414308667966e-01 8.2867187964341582e+00 0 0 0
159 1 3 -2.6155968361088261e-01 1.7700130692034129e+01 2.0825544195319665e+00 7.5269612921532723e+00 0 0 0
160 1 3 -2.4921409958323759e-01 1.7030488579675129e+01 9.3959929820319399e+00 6.3725964767511201e-01 0 0 0
165 1 3 -2.4462781080004234e-01 2.5028853027939000e+01 9.0611642925218376e+00 1.4092552271306302e+00 0 0 0
169 1 3 -2.6708067336715208e-01 1.3002758545987012e+01 3.6874248713775191e+00 3.7800617094601527e+00 0 0 0
171 1 3 -2.6219958249585490e-01 1.4478706352377012e+01 8.6891462231820711e+00 9.6389932387615254e+00 0 0 0
172 1 3 -2.4125155219172401e-01 1.9860187587228889e+01 3.1450658984964179e+00 4.9610491135893842e-01 0 0 0
174 1 3 -2.7765626462384541e-01 9.1968189553165391e+00 2.2538729229623553e+00 9.8244019502523479e+00 0 0 0
175 1 3 -2.4167518928127418e-01 1.5498927008330629e+01 3.3910565510813586e+00 7.4742862524073885e+00 0 0 0
176 1 3 -2.6841488320740675e-01 1.5440281865089126e+01 1.0145296081300039e+01 2.4911397857963551e+00 0 0 0
185 1 3 -2.5679284707302996e-01 1.2418564382141419e+01 3.2717301430398713e+00 1.2912229736160672e+00 0 0 0
187 1 3 -2.6192162142591219e-01 1.4054445540203202e+01 7.8359991497171091e+00 7.2206092812897893e+00 0 0 0
188 1 3 -2.7156869230390829e-01 1.9258754710901904e+01 3.8768548562883356e+00 2.9460429784337414e+00 0 0 0
190 1 3 -2.4635507141628904e-01 9.0365405168127584e+00 2.7056053204601680e+00 7.3061261199315588e+00 0 0 0
191 1 3 -2.5726011715677100e-01 1.6615427345670877e+01 2.9637298042064844e+00 9.7501024381191215e+00 0 0 0
192 1 3 -2.6433978456283497e-01 1.7651663876298041e+01 8.9957511248737827e+00 3.1362386453333508e+00 0 0 0
194 1 3 5.1542864834638324e-01 1.9153627019656053e+01 5.8193159420538390e+00 8.5063913133422311e+00 0 0 0
197 1 3 4.5735256157950477e-01 2.1538462912804281e+01 1.0746603893059371e+01 1.7082690451412290e+00 0 -1 0
201 1 3 4.9088420106591785e-01 1.4218186163949754e+01 6.2464719777846733e+00 1.7869692589628707e+00 0 0 0
203 1 3 4.5607435593343770e-01 1.1398936985841292e+01 6.3905663400386876e+00 9.4806767482126340e+00 0 0 0
204 1 3 5.0036977903813695e-01 2.1322198731121610e+01 6.1584579965307489e+00 1.5250563120465150e+00 0 0 0
206 1 3 4.9273321488233224e-01 1.0126261088738591e+01 1.0617296557355280e+01 8.1181900490865626e+00 0 0 0
207 1 3 5.1688642406287344e-01 1.7628471281936676e+01 5.8837116018219948e-01 7.2137403291227713e+00 0 1 0
208 1 3 4.6179007409374279e-01 1.7745176027906279e+01 1.0581970740470322e+01 -5.1391793293685595e-02 0 -1 0
217 1 3 4.7042671626913773e-01 1.2090666296004372e+01 4.5929580461520993e+00 4.6386682788523190e+00 0 0 0
219 1 3 4.7245286821710347e-01 1.5808111482209840e+01 8.1479587916908578e+00 1.0142930553778138e+01 0 0 -1
220 1 3 4.8328653195466631e-01 1.9100290711028734e+01 3.8230529231939090e+00 -6.4751950155282123e-01 0 0 1
222 1 3 5.0868685718315054e-01 7.9884025491902095e+00 1.4760395362696512e+00 1.0392306453818399e+01 0 0 -1
223 1 3 4.7615353384968806e-01 1.4194803761904772e+01 2.5463442031896961e+00 7.4699574279031928e+00 0 0 0
224 1 3 5.0377014048764934e-01 1.5651089840644030e+01 5.5623953119914460e-01 2.6824385703578151e+00 0 1 0
235 1 3 4.9768291036268814e-01 1.5277932122908403e+01 7.1499470230373241e+00 6.6349050871630473e+00 0 0 0
236 1 3 4.5397368063081084e-01 1.8140695095054959e+01 4.8837624228894656e+00 3.0918841185076014e+00 0 0 0
239 1 3 4.8125571082467272e-01 1.5771005948456052e+01 1.8846358551202538e+00 1.0390274902427645e+01 0 0 0
240 1 3 4.5411761321620625e-01 1.8727072656829328e+01 9.8031658728408662e+00 3.8676624153040171e+00 0 0 0