ITEM: TIMESTEP
0
ITEM: NUMBER OF ATOMS
576
ITEM: BOX BOUNDS xy xz yz pp pp pp
-3.8734541101000000e+00 1.7704000473000001e+01 0.0000000000000000e+00
0.0000000000000000e+00 2.5111999511699999e+01 -3.8734541101000000e+00
0.0000000000000000e+00 1.2813326682700000e+01 0.0000000000000000e+00
ITEM: ATOMS id type xs ys zs
1 1 0.221334 0.317078 0.86788
2 1 0.778666 0.682922 0.13212
3 1 0.028666 0.567078 0.63212
4 1 0.471334 0.932922 0.36788
5 1 0.221334 0.817078 0.86788
6 1 0.778666 0.182922 0.13212
7 1 0.028666 0.0670781 0.63212
8 1 0.471334 0.432922 0.36788
9 1 0.721334 0.317078 0.86788
10 1 0.278666 0.682922 0.13212
11 1 0.528666 0.567078 0.63212
12 1 0.971334 0.932922 0.36788
13 1 0.721334 0.817078 0.86788
14 1 0.278666 0.182922 0.13212
15 1 0.528666 0.0670781 0.63212
16 1 0.971334 0.432922 0.36788
17 1 0.155142 0.317356 0.682364
18 1 0.844858 0.682644 0.317636
19 1 0.0948578 0.567356 0.817636
20 1 0.405142 0.932644 0.182364
21 1 0.155142 0.817356 0.682364
22 1 0.844858 0.182644 0.317636
23 1 0.0948578 0.0673561 0.817636
24 1 0.405142 0.432644 0.182364
25 1 0.655142 0.317356 0.682364
26 1 0.344858 0.682644 0.317636
27 1 0.594858 0.567356 0.817636
28 1 0.905142 0.932644 0.182364
29 1 0.655142 0.817356 0.682364
30 1 0.344858 0.182644 0.317636
31 1 0.594858 0.067356 0.817636
32 1 0.905142 0.432644 0.182364
33 1 0.275339 0.256251 0.692511
34 1 0.724661 0.743749 0.307489
35 1 0.974661 0.506251 0.807489
36 1 0.525339 0.993749 0.192511
37 1 0.275339 0.756251 0.692511
38 1 0.724661 0.243749 0.307489
39 1 0.974661 0.00625062 0.807489
40 1 0.525339 0.493749 0.192511
41 1 0.775339 0.256251 0.692511
42 1 0.224661 0.743749 0.307489
43 1 0.474661 0.506251 0.807489
44 1 0.025339 0.993749 0.192511
45 1 0.775339 0.756251 0.692511
46 1 0.224661 0.243749 0.307489
47 1 0.474661 0.00625062 0.807489
48 1 0.025339 0.493749 0.192511
49 1 0.297342 0.278621 0.8761
50 1 0.702658 0.721379 0.1239
51 1 0.952658 0.528621 0.6239
52 1 0.547342 0.971379 0.3761
53 1 0.297342 0.778621 0.8761
54 1 0.702658 0.221379 0.1239
55 1 0.952658 0.0286209 0.6239
56 1 0.547342 0.471379 0.3761
57 1 0.797342 0.278621 0.8761
58 1 0.202658 0.721379 0.1239
59 1 0.452658 0.528621 0.6239
60 1 0.0473416 0.971379 0.3761
61 1 0.797342 0.778621 0.8761
62 1 0.202658 0.221379 0.1239
63 1 0.452658 0.0286209 0.6239
64 1 0.0473416 0.471379 0.3761
65 1 0.333455 0.309194 0.722076
66 1 0.666545 0.690806 0.277924
67 1 0.916545 0.559194 0.777924
68 1 0.583455 0.940806 0.222076
69 1 0.333455 0.809194 0.722076
70 1 0.666545 0.190806 0.277924
71 1 0.916545 0.0591941 0.777924
72 1 0.583455 0.440806 0.222076
73 1 0.833455 0.309194 0.722076
74 1 0.166545 0.690806 0.277924
75 1 0.416545 0.559194 0.777924
76 1 0.0834545 0.940806 0.222076
77 1 0.833455 0.809194 0.722076
78 1 0.166545 0.190806 0.277924
79 1 0.416545 0.0591941 0.777924
80 1 0.0834545 0.440806 0.222076
81 1 0.215481 0.368791 0.713445
82 1 0.784519 0.631209 0.286555
83 1 0.0345187 0.618791 0.786555
84 1 0.465481 0.881209 0.213445
85 1 0.215481 0.868791 0.713445
86 1 0.784519 0.131209 0.286555
87 1 0.0345187 0.118791 0.786555
88 1 0.465481 0.381209 0.213445
89 1 0.715481 0.368791 0.713445
90 1 0.284519 0.631209 0.286555
91 1 0.534519 0.618791 0.786555
92 1 0.965481 0.881209 0.213445
93 1 0.715481 0.868791 0.713445
94 1 0.284519 0.131209 0.286555
95 1 0.534519 0.118791 0.786555
96 1 0.965481 0.381209 0.213445
97 2 0.207242 0.321399 0.943583
98 2 0.792758 0.678601 0.0564171
99 2 0.0427576 0.571399 0.556417
100 2 0.457242 0.928601 0.443583
101 2 0.207242 0.821399 0.943583
102 2 0.792758 0.178601 0.0564171
103 2 0.0427576 0.071399 0.556417
104 2 0.457242 0.428601 0.443583
105 2 0.707242 0.321399 0.943583
106 2 0.292758 0.678601 0.0564171
107 2 0.542758 0.571399 0.556417
108 2 0.957242 0.928601 0.443583
109 2 0.707242 0.821399 0.943583
110 2 0.292758 0.178601 0.0564171
111 2 0.542758 0.071399 0.556417
112 2 0.957242 0.428601 0.443583
113 2 0.0967603 0.328028 0.626897
114 2 0.90324 0.671972 0.373103
115 2 0.15324 0.578028 0.873103
116 2 0.34676 0.921972 0.126897
117 2 0.0967603 0.828028 0.626897
118 2 0.90324 0.171972 0.373103
119 2 0.15324 0.0780278 0.873103
120 2 0.34676 0.421972 0.126897
121 2 0.59676 0.328028 0.626897
122 2 0.40324 0.671972 0.373103
123 2 0.65324 0.578028 0.873103
124 2 0.84676 0.921972 0.126897
125 2 0.59676 0.828028 0.626897
126 2 0.40324 0.171972 0.373103
127 2 0.65324 0.0780278 0.873103
128 2 0.84676 0.421972 0.126897
129 2 0.294664 0.227069 0.642574
130 2 0.705336 0.772931 0.357426
131 2 0.955336 0.477069 0.857426
132 2 0.544664 0.0229308 0.142574
133 2 0.294664 0.727069 0.642574
134 2 0.705336 0.272931 0.357426
135 2 0.955336 0.977069 0.857426
136 2 0.544664 0.522931 0.142574
137 2 0.794664 0.227069 0.642574
138 2 0.205336 0.772931 0.357426
139 2 0.455336 0.477069 0.857426
140 2 0.0446637 0.0229308 0.142574
141 2 0.794664 0.727069 0.642574
142 2 0.205336 0.272931 0.357426
143 2 0.455336 0.977069 0.857426
144 2 0.0446637 0.522931 0.142574
145 2 0.319927 0.263849 0.957956
146 2 0.680073 0.736151 0.0420438
147 2 0.930073 0.513849 0.542044
148 2 0.569927 0.986151 0.457956
149 2 0.319927 0.763849 0.957956
150 2 0.680073 0.236151 0.0420438
151 2 0.930073 0.0138488 0.542044
152 2 0.569927 0.486151 0.457956
153 2 0.819927 0.263849 0.957956
154 2 0.180073 0.736151 0.0420438
155 2 0.430073 0.513849 0.542044
156 2 0.0699269 0.986151 0.457956
157 2 0.819927 0.763849 0.957956
158 2 0.180073 0.236151 0.0420438
159 2 0.430073 0.0138488 0.542044
160 2 0.069927 0.486151 0.457956
161 2 0.38463 0.307635 0.689486
162 2 0.61537 0.692365 0.310514
163 2 0.86537 0.557635 0.810514
164 2 0.63463 0.942365 0.189486
165 2 0.38463 0.807635 0.689486
166 2 0.61537 0.192365 0.310514
167 2 0.86537 0.0576347 0.810514
168 2 0.63463 0.442365 0.189486
169 2 0.88463 0.307635 0.689486
170 2 0.11537 0.692365 0.310514
171 2 0.36537 0.557635 0.810514
172 2 0.13463 0.942365 0.189486
173 2 0.88463 0.807635 0.689486
174 2 0.11537 0.192365 0.310514
175 2 0.36537 0.0576347 0.810514
176 2 0.13463 0.442365 0.189486
177 2 0.187525 0.406899 0.678594
178 2 0.812475 0.593101 0.321406
179 2 0.0624754 0.656899 0.821406
180 2 0.437525 0.843101 0.178594
181 2 0.187525 0.906899 0.678594
182 2 0.812475 0.0931014 0.321406
183 2 0.0624754 0.156899 0.821406
184 2 0.437525 0.343101 0.178594
185 2 0.687525 0.406899 0.678594
186 2 0.312475 0.593101 0.321406
187 2 0.562475 0.656899 0.821406
188 2 0.937525 0.843101 0.178594
189 2 0.687525 0.906899 0.678594
190 2 0.312475 0.0931014 0.321406
191 2 0.562475 0.156899 0.821406
192 2 0.937525 0.343101 0.178594
193 3 0.15193 0.296196 0.78589
194 3 0.84807 0.703804 0.21411
195 3 0.0980697 0.546196 0.71411
196 3 0.40193 0.953804 0.28589
197 3 0.15193 0.796196 0.78589
198 3 0.84807 0.203804 0.21411
199 3 0.0980697 0.0461959 0.71411
200 3 0.40193 0.453804 0.28589
201 3 0.65193 0.296196 0.78589
202 3 0.34807 0.703804 0.21411
203 3 0.59807 0.546196 0.71411
204 3 0.90193 0.953804 0.28589
205 3 0.65193 0.796196 0.78589
206 3 0.34807 0.203804 0.21411
207 3 0.59807 0.0461959 0.71411
208 3 0.90193 0.453804 0.28589
209 3 0.0715963 0.303646 0.804696
210 3 0.928404 0.696354 0.195304
211 3 0.178404 0.553646 0.695304
212 3 0.321596 0.946354 0.304696
213 3 0.0715963 0.803646 0.804696
214 3 0.928404 0.196354 0.195304
215 3 0.178404 0.0536463 0.695304
216 3 0.321596 0.446354 0.304696
217 3 0.571596 0.303646 0.804696
218 3 0.428404 0.696354 0.195304
219 3 0.678404 0.553646 0.695304
220 3 0.821596 0.946354 0.304696
221 3 0.571596 0.803646 0.804696
222 3 0.428404 0.196354 0.195304
223 3 0.678404 0.0536463 0.695304
224 3 0.821596 0.446354 0.304696
225 3 0.194672 0.275473 0.637211
226 3 0.805328 0.724527 0.362789
227 3 0.0553277 0.525473 0.862789
228 3 0.444672 0.974527 0.137211
229 3 0.194672 0.775473 0.637211
230 3 0.805328 0.224527 0.362789
231 3 0.0553277 0.0254732 0.862789
232 3 0.444672 0.474527 0.137211
233 3 0.694672 0.275473 0.637211
234 3 0.305328 0.724527 0.362789
235 3 0.555328 0.525473 0.862789
236 3 0.944672 0.974527 0.137211
237 3 0.694672 0.775473 0.637211
238 3 0.305328 0.224527 0.362789
239 3 0.555328 0.0254732 0.862789
240 3 0.944672 0.474527 0.137211
241 3 0.152024 0.253412 0.530051
242 3 0.847976 0.746588 0.469949
243 3 0.097976 0.503412 0.969949
244 3 0.402024 0.996588 0.0300509
245 3 0.152024 0.753412 0.530051
246 3 0.847976 0.246588 0.469949
247 3 0.097976 0.00341214 0.969949
248 3 0.402024 0.496588 0.0300509
249 3 0.652024 0.253412 0.530051
250 3 0.347976 0.746588 0.469949
251 3 0.597976 0.503412 0.969949
252 3 0.902024 0.996588 0.0300509
253 3 0.652024 0.753412 0.530051
254 3 0.347976 0.246588 0.469949
255 3 0.597976 0.00341214 0.969949
256 3 0.902024 0.496588 0.0300509
257 3 0.283598 0.234138 0.798768
258 3 0.716402 0.765862 0.201232
259 3 0.966402 0.484138 0.701232
260 3 0.533598 0.015862 0.298768
261 3 0.283598 0.734138 0.798768
262 3 0.716402 0.265862 0.201232
263 3 0.966402 0.984138 0.701232
264 3 0.533598 0.515862 0.298768
265 3 0.783598 0.234138 0.798768
266 3 0.216402 0.765862 0.201232
267 3 0.466402 0.484138 0.701232
268 3 0.0335978 0.015862 0.298768
269 3 0.783598 0.734138 0.798768
270 3 0.216402 0.265862 0.201232
271 3 0.466402 0.984138 0.701232
272 3 0.0335978 0.515862 0.298768
273 3 0.221632 0.194381 0.80562
274 3 0.778368 0.805619 0.19438
275 3 0.0283685 0.444381 0.69438
276 3 0.471632 0.0556192 0.30562
277 3 0.221632 0.694381 0.80562
278 3 0.778368 0.305619 0.19438
279 3 0.0283685 0.944381 0.69438
280 3 0.471632 0.555619 0.30562
281 3 0.721632 0.194381 0.80562
282 3 0.278368 0.805619 0.19438
283 3 0.528368 0.444381 0.69438
284 3 0.971632 0.0556192 0.30562
285 3 0.721632 0.694381 0.80562
286 3 0.278368 0.305619 0.19438
287 3 0.528368 0.944381 0.69438
288 3 0.971632 0.555619 0.30562
289 3 0.36022 0.304325 0.837686
290 3 0.63978 0.695675 0.162314
291 3 0.88978 0.554325 0.662314
292 3 0.61022 0.945675 0.337686
293 3 0.36022 0.804325 0.837686
294 3 0.63978 0.195675 0.162314
295 3 0.88978 0.0543252 0.662314
296 3 0.61022 0.445675 0.337686
297 3 0.86022 0.304325 0.837686
298 3 0.13978 0.695675 0.162314
299 3 0.38978 0.554325 0.662314
300 3 0.11022 0.945675 0.337686
301 3 0.86022 0.804325 0.837686
302 3 0.13978 0.195675 0.162314
303 3 0.38978 0.0543252 0.662314
304 3 0.11022 0.445675 0.337686
305 3 0.397648 0.352212 0.899438
306 3 0.602352 0.647788 0.100562
307 3 0.852352 0.602212 0.600562
308 3 0.647648 0.897788 0.399438
309 3 0.397648 0.852212 0.899438
310 3 0.602352 0.147788 0.100562
311 3 0.852352 0.102212 0.600562
312 3 0.647648 0.397788 0.399438
313 3 0.897648 0.352212 0.899438
314 3 0.102352 0.647788 0.100562
315 3 0.352352 0.602212 0.600562
316 3 0.147648 0.897788 0.399438
317 3 0.897648 0.852212 0.899438
318 3 0.102352 0.147788 0.100562
319 3 0.352352 0.102212 0.600562
320 3 0.147648 0.397788 0.399438
321 3 0.283516 0.355349 0.6744
322 3 0.716484 0.644651 0.3256
323 3 0.966484 0.605349 0.8256
324 3 0.533516 0.894651 0.1744
325 3 0.283516 0.855349 0.6744
326 3 0.716484 0.144651 0.3256
327 3 0.966484 0.105349 0.8256
328 3 0.533516 0.394651 0.1744
329 3 0.783516 0.355349 0.6744
330 3 0.216484 0.644651 0.3256
331 3 0.466484 0.605349 0.8256
332 3 0.0335157 0.894651 0.1744
333 3 0.783516 0.855349 0.6744
334 3 0.216484 0.144651 0.3256
335 3 0.466484 0.105349 0.8256
336 3 0.0335157 0.394651 0.1744
337 3 0.326724 0.402851 0.644545
338 3 0.673276 0.597149 0.355455
339 3 0.923276 0.652851 0.855455
340 3 0.576724 0.847149 0.144545
341 3 0.326724 0.902851 0.644545
342 3 0.673276 0.0971493 0.355455
343 3 0.923276 0.152851 0.855455
344 3 0.576724 0.347149 0.144545
345 3 0.826724 0.402851 0.644545
346 3 0.173276 0.597149 0.355455
347 3 0.423276 0.652851 0.855455
348 3 0.0767245 0.847149 0.144545
349 3 0.826724 0.902851 0.644545
350 3 0.173276 0.0971493 0.355455
351 3 0.423276 0.152851 0.855455
352 3 0.0767245 0.347149 0.144545
353 3 0.239554 0.36984 0.830218
354 3 0.760446 0.63016 0.169781
355 3 0.0104459 0.61984 0.669782
356 3 0.489554 0.88016 0.330218
357 3 0.239554 0.86984 0.830218
358 3 0.760446 0.13016 0.169781
359 3 0.0104459 0.11984 0.669782
360 3 0.489554 0.38016 0.330219
361 3 0.739554 0.36984 0.830219
362 3 0.260446 0.63016 0.169781
363 3 0.510446 0.61984 0.669781
364 3 0.989554 0.88016 0.330218
365 3 0.739554 0.86984 0.830219
366 3 0.260446 0.13016 0.169781
367 3 0.510446 0.11984 0.669781
368 3 0.989554 0.38016 0.330219
369 3 0.207292 0.417925 0.874761
370 3 0.792708 0.582075 0.125239
371 3 0.0427076 0.667925 0.625239
372 3 0.457292 0.832075 0.374761
373 3 0.207292 0.917925 0.874761
374 3 0.792708 0.0820754 0.125239
375 3 0.0427076 0.167925 0.625239
376 3 0.457292 0.332075 0.374761
377 3 0.707292 0.417925 0.874761
378 3 0.292708 0.582075 0.125239
379 3 0.542708 0.667925 0.625239
380 3 0.957292 0.832075 0.374761
381 3 0.707292 0.917925 0.874761
382 3 0.292708 0.0820754 0.125239
383 3 0.542708 0.167925 0.625239
384 3 0.957292 0.332075 0.374761
385 4 0.0104474 0.308204 0.72639
386 4 0.989553 0.691796 0.27361
387 4 0.239553 0.558204 0.77361
388 4 0.260447 0.941796 0.22639
389 4 0.0104474 0.808204 0.72639
390 4 0.989553 0.191796 0.27361
391 4 0.239553 0.058204 0.77361
392 4 0.260447 0.441796 0.22639
393 4 0.510447 0.308204 0.72639
394 4 0.489553 0.691796 0.27361
395 4 0.739553 0.558204 0.77361
396 4 0.760447 0.941796 0.22639
397 4 0.510447 0.808204 0.72639
398 4 0.489553 0.191796 0.27361
399 4 0.739553 0.058204 0.77361
400 4 0.760447 0.441796 0.22639
401 4 0.0675056 0.298634 0.897514
402 4 0.932494 0.701366 0.102485
403 4 0.182494 0.548634 0.602485
404 4 0.317506 0.951366 0.397515
405 4 0.0675056 0.798634 0.897514
406 4 0.932494 0.201366 0.102485
407 4 0.182494 0.0486338 0.602486
408 4 0.317506 0.451366 0.397515
409 4 0.567506 0.298634 0.897515
410 4 0.432494 0.701366 0.102485
411 4 0.682494 0.548634 0.602485
412 4 0.817506 0.951366 0.397515
413 4 0.567506 0.798634 0.897515
414 4 0.432494 0.201366 0.102485
415 4 0.682494 0.0486338 0.602485
416 4 0.817506 0.451366 0.397515
417 4 0.184066 0.214691 0.496321
418 4 0.815934 0.785309 0.503679
419 4 0.0659336 0.464691 0.00367875
420 4 0.434066 0.0353088 0.996321
421 4 0.184066 0.714691 0.496321
422 4 0.815934 0.285309 0.503679
423 4 0.0659336 0.964691 0.00367875
424 4 0.434066 0.535309 0.996321
425 4 0.684066 0.214691 0.496321
426 4 0.315934 0.785309 0.503679
427 4 0.565934 0.464691 0.00367874
428 4 0.934066 0.0353088 0.996321
429 4 0.684066 0.714691 0.496321
430 4 0.315934 0.285309 0.503679
431 4 0.565934 0.964691 0.00367875
432 4 0.934066 0.535309 0.996321
433 4 0.0885685 0.275513 0.477328
434 4 0.911432 0.724487 0.522672
435 4 0.161432 0.525513 0.0226724
436 4 0.338568 0.974487 0.977328
437 4 0.0885685 0.775513 0.477328
438 4 0.911432 0.224487 0.522672
439 4 0.161432 0.0255132 0.0226724
440 4 0.338568 0.474487 0.977328
441 4 0.588568 0.275513 0.477328
442 4 0.411432 0.724487 0.522672
443 4 0.661432 0.525513 0.0226724
444 4 0.838568 0.974487 0.977328
445 4 0.588568 0.775513 0.477328
446 4 0.411432 0.224487 0.522672
447 4 0.661432 0.0255132 0.0226724
448 4 0.838568 0.474487 0.977328
449 4 0.19322 0.163636 0.727528
450 4 0.80678 0.836364 0.272472
451 4 0.0567805 0.413636 0.772472
452 4 0.44322 0.0863644 0.227528
453 4 0.19322 0.663636 0.727528
454 4 0.80678 0.336364 0.272472
455 4 0.0567805 0.913636 0.772472
456 4 0.44322 0.586364 0.227528
457 4 0.69322 0.163636 0.727528
458 4 0.30678 0.836364 0.272472
459 4 0.55678 0.413636 0.772472
460 4 0.94322 0.0863644 0.227528
461 4 0.69322 0.663636 0.727528
462 4 0.30678 0.336364 0.272472
463 4 0.55678 0.913636 0.772472
464 4 0.94322 0.586364 0.227528
465 4 0.20499 0.189871 0.891953
466 4 0.79501 0.810129 0.108047
467 4 0.0450105 0.439871 0.608047
468 4 0.45499 0.0601295 0.391953
469 4 0.204989 0.689871 0.891953
470 4 0.79501 0.310129 0.108047
471 4 0.0450105 0.939871 0.608047
472 4 0.45499 0.560129 0.391953
473 4 0.70499 0.189871 0.891953
474 4 0.29501 0.810129 0.108047
475 4 0.54501 0.439871 0.608047
476 4 0.95499 0.0601295 0.391953
477 4 0.70499 0.689871 0.891953
478 4 0.295011 0.310129 0.108047
479 4 0.54501 0.939871 0.608047
480 4 0.95499 0.560129 0.391953
481 4 0.429535 0.38738 0.855301
482 4 0.570465 0.61262 0.144699
483 4 0.820465 0.63738 0.644699
484 4 0.679535 0.86262 0.355301
485 4 0.429535 0.88738 0.855301
486 4 0.570465 0.11262 0.144699
487 4 0.820465 0.13738 0.644699
488 4 0.679535 0.36262 0.355301
489 4 0.929535 0.38738 0.855301
490 4 0.070465 0.61262 0.144699
491 4 0.320465 0.63738 0.644699
492 4 0.179535 0.86262 0.355301
493 4 0.929535 0.88738 0.855301
494 4 0.070465 0.11262 0.144699
495 4 0.320465 0.13738 0.644699
496 4 0.179535 0.36262 0.355301
497 4 0.398911 0.355183 0.995492
498 4 0.601089 0.644817 0.00450816
499 4 0.851089 0.605183 0.504508
500 4 0.648911 0.894817 0.495492
501 4 0.398911 0.855183 0.995492
502 4 0.601089 0.144817 0.00450817
503 4 0.851089 0.105183 0.504508
504 4 0.648911 0.394817 0.495492
505 4 0.898911 0.355183 0.995492
506 4 0.101089 0.644817 0.00450816
507 4 0.351089 0.605183 0.504508
508 4 0.148911 0.894817 0.495492
509 4 0.898911 0.855183 0.995492
510 4 0.101089 0.144817 0.00450816
511 4 0.351089 0.105183 0.504508
512 4 0.148911 0.394817 0.495492
513 4 0.298294 0.44964 0.643562
514 4 0.701706 0.55036 0.356438
515 4 0.951706 0.69964 0.856438
516 4 0.548294 0.80036 0.143562
517 4 0.298294 0.94964 0.643562
518 4 0.701706 0.0503604 0.356438
519 4 0.951706 0.19964 0.856438
520 4 0.548294 0.30036 0.143562
521 4 0.798294 0.44964 0.643562
522 4 0.201706 0.55036 0.356438
523 4 0.451706 0.69964 0.856438
524 4 0.0482939 0.80036 0.143562
525 4 0.798294 0.94964 0.643562
526 4 0.201706 0.0503604 0.356438
527 4 0.451706 0.19964 0.856438
528 4 0.0482939 0.30036 0.143562
529 4 0.387291 0.393392 0.61388
530 4 0.612709 0.606608 0.38612
531 4 0.862709 0.643392 0.88612
532 4 0.637291 0.856608 0.11388
533 4 0.387291 0.893392 0.61388
534 4 0.612709 0.106608 0.38612
535 4 0.862709 0.143392 0.88612
536 4 0.637291 0.356608 0.11388
537 4 0.887291 0.393392 0.61388
538 4 0.112709 0.606608 0.38612
539 4 0.362709 0.643392 0.88612
540 4 0.137291 0.856608 0.11388
541 4 0.887291 0.893392 0.61388
542 4 0.112709 0.106608 0.38612
543 4 0.362709 0.143392 0.88612
544 4 0.137291 0.356608 0.11388
545 4 0.197813 0.461764 0.824095
546 4 0.802187 0.538236 0.175905
547 4 0.0521874 0.711764 0.675905
548 4 0.447813 0.788236 0.324095
549 4 0.197813 0.961764 0.824095
550 4 0.802187 0.038236 0.175905
551 4 0.0521874 0.211764 0.675905
552 4 0.447813 0.288236 0.324095
553 4 0.697813 0.461764 0.824095
554 4 0.302187 0.538236 0.175905
555 4 0.552187 0.711764 0.675905
556 4 0.947813 0.788236 0.324095
557 4 0.697813 0.961764 0.824095
558 4 0.302187 0.038236 0.175905
559 4 0.552187 0.211764 0.675905
560 4 0.947813 0.288236 0.324095
561 4 0.19825 0.41411 0.965592
562 4 0.80175 0.58589 0.0344081
563 4 0.0517504 0.66411 0.534408
564 4 0.44825 0.83589 0.465592
565 4 0.19825 0.91411 0.965592
566 4 0.80175 0.0858897 0.0344081
567 4 0.0517504 0.16411 0.534408
568 4 0.44825 0.33589 0.465592
569 4 0.69825 0.41411 0.965592
570 4 0.30175 0.58589 0.0344081
571 4 0.55175 0.66411 0.534408
572 4 0.94825 0.83589 0.465592
573 4 0.69825 0.91411 0.965592
574 4 0.30175 0.0858897 0.0344081
575 4 0.55175 0.16411 0.534408
576 4 0.94825 0.33589 0.465592
ITEM: TIMESTEP
1000
ITEM: NUMBER OF ATOMS
576
ITEM: BOX BOUNDS xy xz yz pp pp pp
-5.6749453782445229e+00 1.8915729692266876e+01 -2.5296130934629929e-01
-9.1456038194928624e-01 2.6081656167103574e+01 -4.2102548496313030e+00
-5.5972366518690997e-01 1.3373050347886917e+01 5.5096273454288087e-02
ITEM: ATOMS id type xs ys zs
1 1 0.241724 0.331734 0.891793
3 1 0.0144684 0.566348 0.644351
5 1 0.234107 0.818734 0.869487
7 1 0.0222925 0.0655665 0.640291
8 1 0.470324 0.427409 0.386836
10 1 0.261815 0.681391 0.140947
14 1 0.264307 0.188074 0.144929
17 1 0.171407 0.31098 0.736202
19 1 0.0712632 0.553672 0.81382
20 1 0.428132 0.935706 0.188838
21 1 0.181007 0.810765 0.699893
23 1 0.0903632 0.0499214 0.799522
24 1 0.403778 0.447006 0.233542
26 1 0.328985 0.699737 0.297612
30 1 0.326432 0.18268 0.309607
33 1 0.270033 0.254963 0.745328
37 1 0.292876 0.761579 0.715796
42 1 0.217904 0.746759 0.292043
44 1 0.0244499 0.992609 0.221884
46 1 0.219891 0.228262 0.318897
48 1 0.0255225 0.490233 0.23058
49 1 0.303936 0.295356 0.895545
53 1 0.307978 0.786725 0.880334
58 1 0.194321 0.712278 0.138706
59 1 0.441227 0.523672 0.654388
60 1 0.0444597 0.960401 0.384307
62 1 0.195391 0.217015 0.150708
63 1 0.440131 0.0422876 0.612685
64 1 0.0495509 0.452137 0.386214
65 1 0.317849 0.301636 0.739328
69 1 0.335153 0.814087 0.738402
74 1 0.180568 0.69546 0.287983
75 1 0.437289 0.547205 0.806803
76 1 0.0690851 0.944109 0.234407
78 1 0.173214 0.177211 0.28535
79 1 0.430637 0.0659999 0.764028
80 1 0.0686109 0.440089 0.23326
81 1 0.219848 0.357715 0.728891
83 1 0.0199123 0.599314 0.797316
85 1 0.223478 0.85839 0.720486
87 1 0.0452746 0.0962355 0.803921
88 1 0.451316 0.401892 0.224987
90 1 0.286726 0.648988 0.297767
94 1 0.279217 0.134028 0.277294
97 2 0.242495 0.3446 0.962136
99 2 0.0238763 0.575576 0.573261
101 2 0.23269 0.824502 0.944708
103 2 0.0281633 0.0762993 0.568704
106 2 0.261103 0.673349 0.0683794
110 2 0.272177 0.191891 0.0761155
113 2 0.117847 0.318021 0.691538
115 2 0.12113 0.559232 0.872633
116 2 0.373857 0.929266 0.142612
117 2 0.12859 0.815396 0.650758
119 2 0.145995 0.0534322 0.844943
120 2 0.350253 0.44221 0.185812
122 2 0.385722 0.698578 0.33907
126 2 0.37838 0.172995 0.360499
129 2 0.284076 0.225665 0.70657
133 2 0.317007 0.734482 0.676999
138 2 0.196447 0.776213 0.329074
139 2 0.463585 0.468647 0.859821
140 2 0.0459102 0.0220587 0.184049
142 2 0.199479 0.251975 0.367512
143 2 0.463279 0.989183 0.827373
144 2 0.0462792 0.519434 0.193489
145 2 0.339804 0.291116 0.969818
149 2 0.335302 0.772871 0.95464
154 2 0.162886 0.722995 0.0636209
155 2 0.405739 0.51088 0.581606
156 2 0.0680161 0.970635 0.462449
158 2 0.16753 0.234863 0.0814866
159 2 0.410114 0.0275575 0.543061
160 2 0.0789907 0.457467 0.460407
161 2 0.356264 0.291561 0.698544
165 2 0.38432 0.813663 0.712924
170 2 0.140947 0.695635 0.327885
171 2 0.395275 0.541242 0.840828
172 2 0.11435 0.947374 0.204054
174 2 0.127174 0.175417 0.315739
175 2 0.392056 0.0639986 0.802864
176 2 0.113423 0.445747 0.202975
177 2 0.187056 0.388193 0.688513
179 2 0.046604 0.629931 0.847832
180 2 0.448184 0.849959 0.191323
181 2 0.188079 0.889082 0.68003
183 2 0.0775027 0.124285 0.844231
184 2 0.419478 0.371381 0.180051
186 2 0.319677 0.621133 0.34111
190 2 0.309211 0.0993583 0.308568
193 3 0.173953 0.305524 0.844039
195 3 0.0787894 0.545227 0.712845
196 3 0.424692 0.953472 0.289136
197 3 0.174068 0.793456 0.804317
199 3 0.0894315 0.0418817 0.695342
200 3 0.403118 0.45402 0.340765
202 3 0.32429 0.710672 0.190281
206 3 0.328344 0.207421 0.216564
209 3 0.107175 0.327354 0.86347
211 3 0.14721 0.566719 0.705908
212 3 0.358024 0.943547 0.317279
213 3 0.103519 0.808947 0.819925
215 3 0.156106 0.063757 0.676052
216 3 0.338843 0.429542 0.362067
218 3 0.392086 0.695813 0.169007
222 3 0.395684 0.201177 0.190355
225 3 0.193543 0.264295 0.697513
227 3 0.0360951 0.50876 0.840669
228 3 0.462803 0.972338 0.143776
229 3 0.218467 0.771319 0.663334
231 3 0.0625128 0.00377417 0.840972
232 3 0.423558 0.495328 0.19772
234 3 0.297909 0.741626 0.336803
238 3 0.290959 0.210708 0.370735
241 3 0.181939 0.272494 0.589003
243 3 0.0676205 0.486059 0.943268
244 3 0.432534 4.5448e-05 0.0508832
245 3 0.186025 0.740717 0.574542
247 3 0.0887632 0.00348402 0.951237
248 3 0.411518 0.492321 0.0879877
250 3 0.325006 0.743824 0.447476
254 3 0.339674 0.245966 0.442104
257 3 0.288708 0.24067 0.8501
261 3 0.298034 0.743887 0.815375
266 3 0.203255 0.762241 0.188235
267 3 0.457225 0.478256 0.71336
268 3 0.0361835 0.00635414 0.324903
270 3 0.208965 0.256731 0.227805
271 3 0.45807 0.995242 0.675383
272 3 0.0429076 0.502396 0.333867
273 3 0.230451 0.210894 0.87339
275 3 0.018451 0.448316 0.674789
277 3 0.243638 0.704545 0.822468
279 3 0.0212799 0.946329 0.668128
282 3 0.255811 0.798136 0.167794
286 3 0.265436 0.293722 0.219348
289 3 0.351066 0.315642 0.84204
293 3 0.359099 0.815218 0.84582
298 3 0.144788 0.682609 0.180686
299 3 0.398122 0.553882 0.702464
300 3 0.0941896 0.934857 0.342278
302 3 0.149576 0.180851 0.180659
303 3 0.391791 0.0686603 0.659872
304 3 0.0932858 0.424097 0.335969
305 3 0.410651 0.344895 0.907863
309 3 0.394804 0.857925 0.909583
314 3 0.106373 0.641166 0.111402
315 3 0.345617 0.588599 0.631548
316 3 0.137022 0.891091 0.390657
318 3 0.108528 0.147143 0.100401
319 3 0.355729 0.114071 0.603309
320 3 0.149675 0.391301 0.395844
321 3 0.274797 0.343406 0.680852
325 3 0.291288 0.854885 0.685913
330 3 0.228848 0.656215 0.344298
332 3 0.0254176 0.900981 0.178743
334 3 0.219395 0.132749 0.32076
336 3 0.0179582 0.403307 0.171781
337 3 0.322683 0.38661 0.665528
341 3 0.328895 0.906057 0.691915
346 3 0.194132 0.606527 0.359915
347 3 0.441477 0.638318 0.852729
348 3 0.068525 0.854822 0.170454
350 3 0.182358 0.0820392 0.307375
351 3 0.437701 0.157873 0.806839
352 3 0.0539366 0.355362 0.153665
353 3 0.247698 0.374731 0.831144
355 3 0.00589308 0.612551 0.693812
357 3 0.242162 0.868177 0.828838
359 3 0.0190233 0.110365 0.698609
362 3 0.263871 0.631472 0.195353
366 3 0.257204 0.133558 0.166866
369 3 0.211633 0.421919 0.847595
371 3 0.0409146 0.658796 0.668458
372 3 0.450016 0.839866 0.360833
373 3 0.20138 0.909388 0.863665
375 3 0.0435477 0.161318 0.671299
376 3 0.444519 0.335571 0.352423
378 3 0.312844 0.593553 0.171922
382 3 0.299621 0.098054 0.125308
385 4 0.04598 0.324232 0.802333
387 4 0.198289 0.559162 0.78118
388 4 0.29942 0.94461 0.252928
389 4 0.0506041 0.809956 0.747133
391 4 0.213342 0.0600834 0.742916
392 4 0.276831 0.441023 0.311452
394 4 0.448018 0.697455 0.238095
398 4 0.452096 0.20255 0.258646
401 4 0.11369 0.338365 0.950432
403 4 0.15624 0.583541 0.627233
404 4 0.360109 0.945769 0.405806
405 4 0.0962183 0.812464 0.905278
407 4 0.156845 0.0741553 0.589957
408 4 0.344275 0.400481 0.43281
410 4 0.392816 0.694005 0.0817877
414 4 0.393196 0.20427 0.100697
417 4 0.210999 0.243622 0.543829
419 4 0.0442617 0.446094 0.967304
420 4 0.470876 0.0311992 0.0241723
421 4 0.223091 0.705425 0.556016
423 4 0.0634151 0.97353 1.2621e-05
424 4 0.444073 0.524218 0.0513518
426 4 0.294099 0.775501 0.485516
430 4 0.311578 0.28604 0.458661
433 4 0.13921 0.305616 0.543943
435 4 0.121291 0.506419 0.000571726
436 4 0.368919 0.991524 4.02729e-05
437 4 0.126859 0.751143 0.515985
439 4 0.140019 0.0320907 0.997348
440 4 0.377646 0.457024 0.0360934
442 4 0.382903 0.724537 0.495087
446 4 0.403269 0.234686 0.482215
449 4 0.212622 0.171278 0.825376
451 4 0.0506418 0.42408 0.748166
452 4 0.468517 0.0757182 0.2301
453 4 0.206837 0.682227 0.747162
455 4 0.0621413 0.922743 0.737709
456 4 0.470582 0.599898 0.344666
458 4 0.289017 0.828316 0.234094
462 4 0.304833 0.314219 0.296766
465 4 0.205886 0.225831 0.940742
467 4 0.0312485 0.447589 0.592901
469 4 0.243248 0.69037 0.905293
471 4 0.025497 0.940747 0.58295
472 4 0.431422 0.541475 0.425636
474 4 0.266228 0.799518 0.0858177
478 4 0.263493 0.313249 0.138754
481 4 0.446845 0.372906 0.86946
485 4 0.431228 0.885921 0.871118
490 4 0.0800513 0.604162 0.144716
491 4 0.334855 0.630215 0.66828
492 4 0.173774 0.868033 0.349505
494 4 0.0624011 0.119897 0.122533
495 4 0.324574 0.142825 0.646055
496 4 0.172332 0.357568 0.352057
497 4 0.419836 0.343216 0.99878
501 4 0.399163 0.862928 0.998092
506 4 0.107869 0.643238 0.0235836
507 4 0.325505 0.578292 0.54353
508 4 0.132367 0.875644 0.47317
510 4 0.109995 0.151099 0.0143531
511 4 0.352096 0.120613 0.514592
512 4 0.169096 0.394247 0.487271
513 4 0.305523 0.430737 0.679401
517 4 0.300994 0.945459 0.711369
522 4 0.216973 0.564706 0.341088
523 4 0.461785 0.681198 0.830008
524 4 0.0502076 0.810947 0.187404
526 4 0.211942 0.0440653 0.284046
527 4 0.457396 0.199402 0.777651
528 4 0.0211116 0.314096 0.144529
529 4 0.382724 0.376864 0.653061
533 4 0.388013 0.907931 0.676164
538 4 0.139277 0.609798 0.386997
539 4 0.382427 0.634548 0.866695
540 4 0.118523 0.861452 0.133281
542 4 0.124014 0.0773517 0.322654
543 4 0.390689 0.157864 0.849642
544 4 0.111602 0.359097 0.133081
545 4 0.18317 0.449329 0.775681
547 4 0.0515171 0.696942 0.722653
548 4 0.425121 0.804362 0.302782
549 4 0.192195 0.948864 0.815517
551 4 0.0537374 0.195495 0.733036
552 4 0.427623 0.302026 0.287191
554 4 0.340298 0.562286 0.236779
558 4 0.323938 0.0591089 0.173416
561 4 0.22087 0.438748 0.931962
563 4 0.0494235 0.662186 0.58536
564 4 0.449923 0.837215 0.44815
565 4 0.184066 0.907003 0.943326
567 4 0.0476034 0.168786 0.587313
568 4 0.462728 0.323965 0.440416
570 4 0.307081 0.585175 0.0820432
574 4 0.310023 0.106791 0.0432662
2 1 0.770137 0.66736 0.127109
4 1 0.485234 0.932644 0.358302
6 1 0.763365 0.188273 0.120782
9 1 0.746762 0.323351 0.853633
11 1 0.506112 0.559598 0.64244
12 1 0.974607 0.926479 0.369849
13 1 0.740696 0.818139 0.852902
15 1 0.505477 0.0738291 0.603878
16 1 0.979773 0.422723 0.377348
18 1 0.823473 0.692219 0.289307
22 1 0.825965 0.210341 0.275879
25 1 0.676829 0.303264 0.694746
27 1 0.582136 0.547708 0.795774
28 1 0.919055 0.93991 0.204447
29 1 0.669383 0.813054 0.692375
31 1 0.581241 0.0687057 0.767347
32 1 0.917002 0.442817 0.221569
34 1 0.72069 0.749021 0.241273
35 1 0.962581 0.496663 0.784163
36 1 0.537991 0.985405 0.201848
38 1 0.72252 0.264287 0.260293
39 1 0.984514 0.99816 0.790443
40 1 0.501748 0.507041 0.246155
41 1 0.775637 0.247175 0.704253
43 1 0.480974 0.497387 0.813833
45 1 0.766392 0.758497 0.684646
47 1 0.476405 0.0164345 0.777449
50 1 0.705985 0.704631 0.0980011
51 1 0.946114 0.531608 0.631511
52 1 0.55557 0.963524 0.364741
54 1 0.696911 0.224318 0.109299
55 1 0.955915 0.0303734 0.631351
56 1 0.534699 0.466096 0.393552
57 1 0.811075 0.284326 0.859608
61 1 0.802855 0.784608 0.847672
66 1 0.672168 0.703281 0.242988
67 1 0.912877 0.545039 0.769716
68 1 0.58236 0.936448 0.225411
70 1 0.67666 0.21537 0.259149
71 1 0.938575 0.0475004 0.781824
72 1 0.548666 0.460581 0.236818
73 1 0.824776 0.294579 0.700932
77 1 0.818859 0.805789 0.695931
82 1 0.76991 0.646642 0.283284
84 1 0.474441 0.887131 0.212636
86 1 0.778259 0.163116 0.280181
89 1 0.725698 0.35097 0.691386
91 1 0.537293 0.596305 0.795158
92 1 0.963031 0.890226 0.215906