LAMMPS data file via write_data, version 15 Apr 2020, timestep = 80000

576 atoms
4 atom types

4.1317611587400549e-02 1.7662682861413135e+01 xlo xhi
-2.5041887275638608e+00 2.7616188239264162e+01 ylo yhi
-1.0105613151347592e+00 1.3823887997835175e+01 zlo zhi
-5.7346033455480701e+00 -6.2888114371414563e+00 3.0908971263674978e-01 xy xz yz

Masses

1 12.0107
2 1.00794
3 14.0067
4 15.9994

Atoms # full

87 1 1 -2.5850768027662951e-02 1.2621149998051656e+01 -7.6837772870584131e-01 7.9140965582355394e+00 -1 0 0
522 1 4 -2.1281798355496676e-01 1.3481022446511346e+01 1.6564442067457424e+01 -6.3404091154397646e-01 -1 0 0
124 1 2 1.5981263548692054e-01 -5.6560074578219162e+00 2.2702894031186499e+01 1.6603450949924747e+00 1 0 0
368 1 3 2.4220495223525897e-02 -4.9134072245402347e+00 1.0279393812355694e+01 6.9067278892845021e+00 1 0 0
576 1 4 -2.0686600498017249e-01 1.1252347632809048e+01 8.5883336584291818e+00 8.0134049739030750e+00 0 0 0
494 1 4 -1.9647692329556871e-01 1.5379065064509774e+01 2.3059609663746832e+00 6.4672674189348212e-01 -1 0 0
137 1 2 1.4914934891137549e-01 9.7868773785730490e+00 6.0991274959977702e+00 1.3221372678618227e+01 0 0 0
345 1 3 2.3933301354043923e-01 9.6723406927609084e+00 9.7902294660446039e+00 1.0568198538841624e+01 0 0 0
1 1 1 -2.2044485499304239e-02 -2.4635489235797876e+00 7.9474488925278557e+00 1.3404421798279156e+01 0 0 0
5 1 1 -2.5922588631098968e-02 -6.5695496886097384e+00 2.2526011084589371e+01 9.7988007117014568e+00 0 0 0
17 1 1 -2.0897502921677948e-02 -3.3583504855483826e+00 6.8114537337704775e+00 1.1496306052234772e+01 0 0 0
21 1 1 -1.6819994478928860e-02 -6.9573143085831628e+00 2.3106919998815865e+01 7.5317252978399987e+00 0 0 0
23 1 1 -2.6893528502552277e-02 -3.6697665859824453e+00 -1.5901685346736882e+00 8.2092260966309709e+00 0 0 0
37 1 1 -2.7295238517687278e-02 -5.4261070634819575e+00 2.1234150867620098e+01 7.2349215389577415e+00 0 0 0
46 1 1 -2.1326572692561479e-02 -1.0442087894552050e+00 4.0697100569101385e+00 3.8198755472597359e+00 0 0 0
53 1 1 -2.5603844282054217e-02 -5.5914693972450689e+00 2.1306838233219480e+01 9.5640072020287761e+00 0 0 0
60 1 1 -2.4538909146247928e-02 -5.4337584986079364e+00 2.6806268799824384e+01 1.5686370321608609e+00 0 0 0
62 1 1 -2.4301934247901679e-02 7.2009618102194550e-01 3.6503318443849029e+00 2.2935660602067882e+00 0 0 0
74 1 1 -2.3174390347017855e-02 -1.7474178203184101e+00 1.9276548377385591e+01 -3.4399115040214645e-02 0 0 0
76 1 1 -2.2300671840057497e-02 -4.0911954113325439e+00 2.5893426111371362e+01 -9.7262695950685485e-02 0 0 0
78 1 1 -2.3057155355618194e-02 -1.1785680913632932e+00 2.6133870655429501e+00 3.2426690153768361e+00 0 0 0
80 1 1 -3.0345608907316739e-02 -3.8003792524129407e+00 1.2487929747339594e+01 5.3505124758388449e+00 0 0 0
85 1 1 -2.3122879343000009e-02 -5.8194299746426381e+00 2.3976198469731880e+01 8.1252331209232693e+00 0 0 0
90 1 1 -2.7249743503728989e-02 -2.5548436421734606e+00 1.7464924022833205e+01 1.5433977760350475e+00 0 0 0
97 1 2 1.4927306403118268e-01 3.4598132741520220e+00 8.1533077538519549e+00 -4.9933196978699812e-01 0 0 1
101 1 2 1.4578211223696005e-01 -7.0546146349788295e+00 2.2454035774001678e+01 1.0846345375333943e+01 0 0 0
113 1 2 1.6056528554033184e-01 -4.2768817792456986e+00 6.8404808411274178e+00 1.0811404236333590e+01 0 0 0
115 1 2 1.5071614000976427e-01 -8.0757434924171569e+00 1.6993560327242935e+01 9.9350429215371570e+00 0 0 0
117 1 2 1.6610453072659176e-01 -7.7007869973951193e+00 2.3711852231090631e+01 6.9740170908010919e+00 0 0 0
119 1 2 1.5352635843679663e-01 -3.1412644558082237e+00 -1.3459105058453775e+00 9.1900823305908261e+00 0 0 0
133 1 2 1.4827647083319867e-01 -5.0163335867526513e+00 2.0456298512264620e+01 6.4996768795055040e+00 0 0 0
142 1 2 1.5633935366792087e-01 -1.9790876973236013e+00 4.6318099666682482e+00 3.7853232041590159e+00 0 0 0
156 1 2 1.4763359075078747e-01 -6.8027193181846579e-02 -2.3488259175648283e+00 2.0049913450988752e+00 0 1 0
158 1 2 1.5415620527495943e-01 1.1184827517116833e+00 4.0275615433478107e+00 1.3592546828790115e+00 0 0 0
160 1 2 1.5005031165759838e-01 1.0546820567273905e+01 1.2254530563753548e+01 5.3468327259047035e+00 -1 0 0
170 1 2 1.4885701324220399e-01 -2.1005219941063680e+00 1.9917224962265404e+01 -8.6177985618549191e-01 0 0 0
172 1 2 1.4453082900199296e-01 -9.9513589259519559e+00 2.6593765783775829e+01 1.3799736109569512e+01 0 0 -1
174 1 2 1.5352765581085404e-01 -2.2695363879155241e+00 2.3690624831815414e+00 2.9133816600502462e+00 0 0 0
176 1 2 1.4834106777080469e-01 -3.1580362265917059e+00 1.3463886389063388e+01 5.4376818414129460e+00 0 0 0
177 1 2 1.5246563936312718e-01 -2.4219936364797916e+00 8.4009366445033642e+00 1.0166774683728715e+01 0 0 0
181 1 2 1.6097996843678844e-01 -5.9282151719866922e+00 2.5054380125229809e+01 7.8152675760375478e+00 0 0 0
183 1 2 1.4763829374173201e-01 1.2392181850617808e+01 -5.4958202082707519e-02 8.7909759651273767e+00 -1 0 0
186 1 2 1.4757264323035152e-01 -3.4874392933470943e+00 1.6956021728438454e+01 1.9473832761792500e+00 0 0 0
193 1 3 3.1835305430447547e-02 -3.6556837921572227e+00 7.2296159016307016e+00 1.2912938657903098e+01 0 0 0
197 1 3 3.2466424435225988e-02 -7.6854900167009923e+00 2.2449133689067725e+01 8.7634502814854223e+00 0 0 0
199 1 3 1.6727243578290751e-02 -2.7206696817304978e+00 -1.1811135688674854e+00 7.0792974627994374e+00 0 0 0
209 1 3 2.5078724023085774e-01 -4.9230412860819444e+00 8.0913481037200352e+00 1.2906884207972954e+01 0 0 0
213 1 3 2.4807249433902878e-01 -8.8705977861901957e+00 2.3356605982295822e+01 9.1265520637600837e+00 0 0 0
215 1 3 2.4306600179643184e-01 -1.6478440553677562e+00 -2.4713784157984708e-01 7.5913010464658237e+00 0 0 0
225 1 3 4.3507192833777776e-02 -2.9694570657293706e+00 5.3139554853329951e+00 1.1484686472747594e+01 0 0 0
227 1 3 5.5540533291834587e-02 -7.6953183576638597e+00 1.5115054675043755e+01 1.0833759205726636e+01 0 0 0
229 1 3 4.3115520787998025e-02 -6.4884148637014398e+00 2.2074226908539259e+01 6.5161655570587227e+00 0 0 0
231 1 3 4.1465359959617878e-02 7.9311104164679760e+00 2.7036559393723646e+01 8.2143922561821405e+00 -1 -1 0
238 1 3 2.9209130984627248e-02 -5.5192034114641686e-01 4.0104753077328148e+00 5.2886295244732997e+00 0 0 0
243 1 3 2.4588738924492512e-01 -7.3523030229285817e+00 1.5738265778361669e+01 1.2209974972626298e+01 0 0 0
245 1 3 2.5216640868505097e-01 9.9880599589155015e+00 2.1157345029383503e+01 6.0081785051519390e+00 -1 0 0
247 1 3 2.4162995776171320e-01 7.0316138516191531e+00 2.6676570658701877e+01 9.4039640070778958e+00 -1 -1 0
254 1 3 2.4998972193461938e-01 -4.3398445121860085e-01 5.3971733618977362e+00 5.9809311294354677e+00 0 0 0
261 1 3 3.0788243836603453e-02 -6.0363657774143125e+00 2.0423007422740369e+01 8.3909093955087073e+00 0 0 0
270 1 3 2.8723407317654326e-02 -8.2642319091499106e-02 4.8022874251475676e+00 2.9022539181249543e+00 0 0 0
273 1 3 2.2848622565718124e-01 3.1894827897444764e+00 4.7863253498347360e+00 -4.2547198564455635e-01 0 0 1
277 1 3 2.5652679705513082e-01 -5.4726785588329783e+00 1.8981998214217331e+01 8.4366051716369022e+00 0 0 0
279 1 3 2.4329866753964810e-01 -7.9632995376480880e+00 2.6736044114385695e+01 5.7917267666044143e+00 0 0 0
286 1 3 2.5236059740278294e-01 -7.4685619475390985e-01 5.6025030080724356e+00 1.7783264343159089e+00 0 0 0
298 1 3 3.1346144167227981e-02 -6.5034957093798573e-01 1.8358342346023740e+01 -5.4644503549496082e-01 0 0 0
300 1 3 2.8055787775958078e-02 -4.1068770605886931e+00 2.7117086482149290e+01 9.0961041288222044e-01 0 0 0
302 1 3 2.7352650916575762e-02 -3.1321393101629713e-01 2.5572833127133956e+00 2.0322623958762804e+00 0 0 0
304 1 3 2.9644481363976762e-02 -5.0545816712492897e+00 1.2879128613358958e+01 6.0624056674111797e+00 0 0 0
314 1 3 2.5245365882369319e-01 -6.2486784135865303e+00 1.9304637997582855e+01 1.3062531920859531e+01 0 0 -1
316 1 3 2.4067442854734722e-01 1.5874926454512690e+00 -1.6839117664491394e+00 1.1119732743088839e-01 0 1 0
318 1 3 2.5444861704925958e-01 -1.0637742919618114e+00 2.7891969183908651e+00 7.0111159742302376e-01 0 0 0
320 1 3 2.5271788308402032e-01 -5.4421193188593744e+00 1.4365186790779291e+01 5.8567208169926062e+00 0 0 0
330 1 3 3.1831251795453271e-02 -2.9337566564860253e+00 1.8459811673658521e+01 4.4063048190577847e-01 0 0 0
332 1 3 2.7130490540646635e-02 -3.2596202012359252e+00 2.4770037957476230e+01 4.0420213084562140e-01 0 0 0
334 1 3 1.8681372534714389e-02 -8.2900227524478476e-01 1.5659835843337815e+00 4.3587064284169816e+00 0 0 0
336 1 3 2.7921266115958757e-02 -2.8324237989257579e+00 1.1517630369262189e+01 5.9883656200962756e+00 0 0 0
346 1 3 2.4258451075433893e-01 -3.6164579905710439e+00 1.7727089280929015e+01 -7.5221228268728391e-01 0 0 0
348 1 3 2.2387001343782259e-01 -1.8014718659683746e+00 2.5202448508145466e+01 7.5469246722374850e-01 0 0 0
350 1 3 2.2495522494837886e-01 -1.0161502766410817e+00 1.4261485322705703e-01 3.7739583773304570e+00 0 0 0
352 1 3 2.4198941992631162e-01 -2.2685701146952648e+00 1.1889803046296377e+01 7.3803874271923346e+00 0 0 0
369 1 3 2.3179676517616421e-01 -2.8263315553023283e+00 1.0016470355299241e+01 1.2102679403555861e+01 0 0 0
375 1 3 2.3950069828647180e-01 1.3437345963458732e+01 1.5593544011284735e+00 7.1846089776055875e+00 -1 0 0
385 1 4 -2.4652880130255556e-01 -5.8165629374156609e+00 8.0094079629415376e+00 1.1990718475942220e+01 0 0 0
387 1 4 -2.0066696393343916e-01 9.7007151855055049e+00 1.7605227552071177e+01 7.9549426191428045e+00 -1 0 0
389 1 4 -2.3571817380526255e-01 8.4673398810830900e+00 2.4304034318156233e+01 8.3110706025583951e+00 -1 0 0
391 1 4 -1.7520229441151502e-01 -1.3759394032479815e+00 -1.3150274376244298e-01 8.8475778278428230e+00 0 0 0
401 1 4 -1.7693603447650047e-01 1.1386059675051390e+00 8.4261181692691771e+00 -8.4639132871134304e-01 0 0 1
405 1 4 -1.9092883726048687e-01 -9.3954733276788431e+00 2.3297743843884476e+01 1.0298397311471529e+01 0 0 0
407 1 4 -2.2815978176546561e-01 -7.8722083517974362e-01 1.3503051981805569e-01 6.7236092762322963e+00 0 0 0
419 1 4 -2.1961869908586520e-01 -7.5590087431849415e+00 1.5036670060819457e+01 1.3259698889841566e+01 0 0 0
421 1 4 -2.1038743968674931e-01 1.0115012402245878e+01 1.9911443400615244e+01 5.8496470475479887e+00 -1 0 0
423 1 4 -2.1102079581030764e-01 6.3060198720065666e+00 2.5643446205818716e+01 9.3037402348253195e+00 -1 0 0
426 1 4 -2.4565421965571277e-01 -3.6686456515169832e+00 2.1196494706298175e+01 1.8092028370195319e+00 0 0 0
430 1 4 -1.8868044706925163e-01 -1.3091592165048118e+00 6.3132787145516094e+00 5.8424796284291416e+00 0 0 0
433 1 4 -1.6865286897469914e-01 -3.4416536743503139e+00 5.2493986703966851e+00 9.0805855714400217e+00 0 0 0
435 1 4 -2.2569775649454882e-01 -7.1005194513917242e+00 1.6996703880599629e+01 1.2266404497918476e+01 0 0 -1
439 1 4 -2.0654770940929401e-01 7.1308714529983650e+00 2.7328839885313418e+01 1.0518777202797548e+01 -1 -1 -1
449 1 4 -1.9691889911130495e-01 2.6681496354149230e+00 3.6406300122926805e+00 -7.0287252755582075e-01 0 0 1
451 1 4 -1.9879670827096690e-01 -6.4337363661945819e+00 1.3759520780994325e+01 9.1006928551033184e+00 0 0 0
453 1 4 -1.5638209185880372e-01 -5.1288996846924526e+00 1.8308316572309874e+01 7.4197566398205401e+00 0 0 0
455 1 4 -2.3795454381221939e-01 -7.5559060079215365e+00 2.5769033947557656e+01 6.5082297428047537e+00 0 0 0
462 1 4 -1.9321315553937363e-01 -1.8828693423774912e+00 6.1181868605471017e+00 2.0135705924554901e+00 0 0 0
465 1 4 -2.3141553043076712e-01 2.6401325265691478e+00 5.6636724094343460e+00 3.3670921804891063e-01 0 0 1
469 1 4 -1.7317178186437079e-01 -5.4590636630609959e+00 1.8408852501374000e+01 9.6111692626747320e+00 0 0 0
471 1 4 -2.1891536571535378e-01 -7.1654369840127643e+00 2.7324426288790150e+01 4.9802813922781350e+00 0 0 0
478 1 4 -1.9697862758076856e-01 -2.0025466466374275e-01 5.7474464589851255e+00 6.0951811356980268e-01 0 0 0
490 1 4 -2.4383888785032665e-01 -6.8924970449064613e+00 2.0138499977154609e+01 1.2342014897495204e+01 0 0 -1
492 1 4 -1.7246985697079731e-01 2.5006638400149637e+00 -1.4744212036039488e+00 -7.7587934097670186e-01 0 1 0
496 1 4 -1.8716876892692014e-01 -4.4813169788357952e+00 1.5188390940661385e+01 5.6110531029143198e+00 0 0 0
508 1 4 -2.0469721371650107e-01 8.0160738554854716e-01 -7.3248562651857663e-01 4.5885971185438557e-01 0 1 0
510 1 4 -1.9203002559468793e-01 -4.7608534871885710e-01 3.3331766709903432e+00 -2.7096932174799349e-01 0 0 0
512 1 4 -1.8051638115662694e-01 1.0952790423972299e+01 1.4702206833416135e+01 5.8523191469119276e+00 -1 0 0
524 1 4 -2.6120475245797431e-01 -9.4012130058164212e-01 2.4371383659397747e+01 1.1877089631059023e+00 0 0 0
526 1 4 -2.2405067464153830e-01 -8.0928369010892176e-02 -7.4436864770640598e-01 3.9171233278699802e+00 0 0 0
538 1 4 -2.1168616427223369e-01 7.6392974139004561e+00 1.8639882278307404e+01 1.2946669602989093e+01 -1 0 -1
540 1 4 -2.4462998083184723e-01 -1.6058132241640619e+00 2.6469904220865555e+01 6.9903974720527295e-01 0 0 0
542 1 4 -2.3023126743944675e-01 -2.1476231824204319e+00 -1.3541278144675761e-01 3.2536922976627727e+00 0 0 0
544 1 4 -2.1772665358837420e-01 -1.7933354592425399e+00 1.3077738210674092e+01 7.5639268219020641e+00 0 0 0
545 1 4 -1.9578001908291004e-01 -3.5252325519490917e+00 1.0234870552814353e+01 1.1037578526308391e+01 0 0 0
549 1 4 -1.9161068674276732e-01 -6.8376377416951133e+00 2.6154209265957938e+01 9.5950178819272338e+00 0 0 0
551 1 4 -1.7461778084099114e-01 1.2690998004189364e+01 2.1530774590854893e+00 8.0241098708645993e+00 -1 0 0
561 1 4 -2.1620895694364048e-01 -2.9731069886259043e+00 1.0786579354991211e+01 1.3140512385248375e+01 0 0 0
12 1 1 -1.9253507928910056e-02 -5.3297261415991795e+00 2.5727577178586518e+01 2.7447653288251792e+00 1 0 0
108 1 2 1.5807779945317127e-01 -5.6720274688360792e+00 2.6107106742799967e+01 3.7590278449247343e+00 1 0 0
364 1 3 1.9531201101643778e-02 -3.9257627492636189e+00 2.5194368077184095e+01 2.8152456224442579e+00 1 0 0
528 1 4 -2.1974728128043164e-01 -2.0829878169953231e+00 1.0943857773659834e+01 8.2060687493377955e+00 0 0 0
554 1 4 -2.2424946162536552e-01 -3.0154367243424609e+00 1.4633978920145029e+01 1.7091464141037265e+00 0 0 0
572 1 4 -2.1079719771001335e-01 -4.1690072417370674e+00 2.5116355436326923e+01 5.2366132197251618e+00 1 0 0
380 1 3 2.4050924433223847e-01 -3.6858845031016267e+00 2.4538053834839658e+01 4.2144656571043777e+00 1 0 0
567 1 4 -2.2464941406729647e-01 -3.1779863011296281e+00 2.1215463567760526e+00 6.6164192824451185e+00 0 0 0
28 1 1 -1.2578422406277946e-02 -5.4461397273709089e+00 2.3737632638743914e+01 1.3954048649576754e+00 1 0 0
92 1 1 -2.3403584694679395e-02 -3.9239895401056044e+00 2.4203791307840234e+01 1.6816989623002927e+00 1 0 0
188 1 2 1.4268307401626998e-01 -3.3000733302088978e+00 2.3422125026600764e+01 2.2172350372134244e+00 1 0 0
204 1 3 3.7214957357298427e-02 -6.2188800191206610e+00 2.4528686309060408e+01 2.4460418605672163e+00 1 0 0
220 1 3 2.4852361728409364e-01 -6.4020902402613782e+00 2.3628396495868937e+01 3.6977528390767000e+00 1 0 0
384 1 3 2.5160832587883775e-01 -5.2138472026811646e+00 9.0872427606057791e+00 7.8454634219181161e+00 1 0 0
396 1 4 -2.2859919820880914e-01 -5.9494685691275002e+00 2.2441351485868708e+01 3.6831599883514530e+00 1 0 0
412 1 4 -2.1986349675609990e-01 -6.8281302438112199e+00 2.4220725476968475e+01 4.7548519244998193e+00 1 0 0
560 1 4 -2.1012945285569118e-01 -4.2226652623557817e+00 8.6198899517475560e+00 8.5284671389265654e+00 1 0 0
7 1 1 -2.0770056737656341e-02 1.4084523012163348e+01 -5.7639108094180802e-01 6.0199699472958752e+00 -1 0 0
10 1 1 -2.5479521133107343e-02 -1.8937775370289356e-01 1.7026860288384764e+01 1.5971829448616797e+00 0 0 0
14 1 1 -2.6487771055509160e-02 1.8901810321461185e+00 3.1274178865477271e+00 3.2352860147848936e+00 0 0 0
19 1 1 -2.3596618948408775e-02 9.0496506643979586e+00 1.6020108092249306e+01 9.9414278880116278e+00 -1 0 0
26 1 1 -2.6896298953130907e-02 -1.8848404033221808e+00 1.8258473267059060e+01 2.7380748747043095e+00 0 0 0
30 1 1 -2.3332203438121681e-02 7.0245618145052457e-01 3.2673199554791337e+00 5.3446544580390976e+00 0 0 0
33 1 1 -3.0933557456257480e-02 -1.6833693931069615e+00 5.2294136141528735e+00 1.2287935037887575e+01 0 0 0
42 1 1 -2.5934654121257120e-02 -1.0933503810292278e+00 2.0074262576330199e+01 1.2026427302996345e+00 0 0 0
48 1 1 -2.5037027214735549e-02 -4.1464587036873839e+00 1.1998979135364399e+01 3.8420816214191573e+00 0 0 0
49 1 1 -2.2939789148421035e-02 4.9399484214041420e+00 6.5714488655855785e+00 -9.1822129575166445e-01 0 0 1
58 1 1 -2.1315719946897592e-02 3.2249342116243174e-01 1.8185127478272399e+01 5.8281577127695017e-01 0 0 0
65 1 1 -3.2325661095408090e-02 -4.9738330743017478e-01 6.2088460076328769e+00 1.1831117886812308e+01 0 0 0
69 1 1 -3.2055183147935290e-02 -4.2636176660859260e+00 2.2089088992614542e+01 7.8346333132526107e+00 0 0 0
81 1 1 -2.6389621864086332e-02 -2.2087204648531298e+00 7.7667276269002716e+00 1.1062366914941006e+01 0 0 0
94 1 1 -2.4091020415122046e-02 6.0764724735519104e-01 1.8473931113577775e+00 4.7187454175616272e+00 0 0 0
103 1 2 1.3786253140227028e-01 -2.8899189503866118e+00 1.3933085281455693e-01 5.3968761290086267e+00 0 0 0
106 1 2 1.4898166944971417e-01 5.6967704151133591e-01 1.6218667181351439e+01 1.6586209537014791e+00 0 0 0
110 1 2 1.4477332455897138e-01 2.9044121763525079e+00 3.2166071733779011e+00 2.7048265640943039e+00 0 0 0
129 1 2 1.4427409700860416e-01 -1.3372022535763017e+00 4.1858287655994300e+00 1.2224237862093858e+01 0 0 0
138 1 2 1.2827529396472878e-01 -1.2409497553472684e+00 2.1168238465481320e+01 1.1513115332788639e+00 0 0 0
144 1 2 1.4516103470188080e-01 -3.7391214157220309e+00 1.2717951101373277e+01 3.0858218553101624e+00 0 0 0
145 1 2 1.4881087543661400e-01 5.2543771465710014e+00 6.7286317446568500e+00 1.5143809497389360e-01 0 0 1
149 1 2 1.5198512657252844e-01 -5.5369715385464451e+00 2.0700272586493078e+01 1.0504781295048875e+01 0 0 0
154 1 2 1.4511338941840535e-01 1.3377347635270600e+00 1.7902640665840288e+01 2.8385712815334996e-01 0 0 0
161 1 2 1.4499993547577750e-01 4.5068557264314713e-01 5.6739149659902033e+00 1.1537466117079070e+01 0 0 0
179 1 2 1.4789589754536731e-01 7.3426963684977773e+00 1.7343750721667668e+01 1.0634943224939374e+01 -1 0 0
190 1 2 1.5680173061785843e-01 8.2364812156895795e-01 1.0060058859872179e+00 5.4222408877300703e+00 0 0 0
195 1 3 4.1329759123680379e-02 8.8837880642805374e+00 1.5497031658727050e+01 8.5553584211146436e+00 -1 0 0
202 1 3 2.5636225324628246e-02 -5.3291375235264282e-01 1.7599947718070467e+01 2.9038263310786081e+00 0 0 0
206 1 3 2.9331869052163347e-02 1.8814605405929115e+00 3.9670245175701702e+00 4.4751458799201194e+00 0 0 0
211 1 3 2.5808883854097753e-01 8.9273562121193208e+00 1.6653739457648722e+01 7.5691930698208845e+00 -1 0 0
234 1 3 2.7113643365757608e-02 -1.7719170388051513e+00 1.9764110251006183e+01 2.5008944042317625e+00 0 0 0
241 1 3 2.4159753686034766e-01 -2.6705498721655108e+00 4.8509062697232981e+00 1.0039885158106124e+01 0 0 0
250 1 3 2.3524630135599894e-01 -3.1936047764850950e+00 2.0379403064696451e+01 2.6725874223241690e+00 0 0 0
257 1 3 2.5493644297624171e-02 -1.7388292942606434e+00 5.4247282510285890e+00 1.3782692245674028e+01 0 0 0
266 1 3 1.7512564642339044e-02 3.3340203755854225e-01 1.9573963893479938e+01 1.1312096975193611e+00 0 0 0
268 1 3 3.8563014106847072e-02 1.1244934334436021e+01 2.6496466855671841e+01 3.9409292786385342e-01 -1 -1 0
282 1 3 2.3857853545468455e-01 1.1314542288111167e+00 1.9956141452326460e+01 2.3467957941488784e+00 0 0 0
289 1 3 2.2405315182636752e-02 -1.4821376129694386e-01 7.0339303281168899e+00 1.3009548458512128e+01 0 0 0
321 1 3 2.3109326066996935e-02 -9.5132263792264560e-01 7.0610203840920960e+00 1.0600154506208280e+01 0 0 0
325 1 3 3.2554414278330328e-02 -4.4920123540441246e+00 2.3662819102616020e+01 7.5775032586669449e+00 0 0 0
337 1 3 2.4723835771637589e-01 1.7212965945352288e-01 8.0206981632746501e+00 1.0204753583417165e+01 0 0 0
353 1 3 2.1756267162900619e-02 -1.9515452285055250e+00 8.7604566889330844e+00 1.2212746765396982e+01 0 0 0
357 1 3 3.4243018443971707e-02 -5.9104074832158027e+00 2.3902396798286759e+01 9.6771964793117391e+00 0 0 0
362 1 3 2.5336518680413391e-02 -1.5005218678335452e+00 1.6444323158275981e+01 1.0814892908001941e+00 0 0 0
366 1 3 2.1785432702489629e-02 1.6962010958728202e+00 1.6725704856991630e+00 3.5934213243670854e+00 0 0 0
373 1 3 2.5561542251965241e-01 -6.8077833179932288e+00 2.5035034481266052e+01 1.0221161958603730e+01 0 0 0
378 1 3 2.4483803951746874e-01 -1.7923153120506830e+00 1.5004568565744133e+01 1.5463441529879072e+00 0 0 0
382 1 3 2.4509348163149708e-01 3.0114912468658610e+00 1.1232007738128038e+00 4.1902738041842014e+00 0 0 0
388 1 4 -1.9100963715162339e-01 3.9588415087880588e+00 2.3465027207969175e+01 3.9681903633973610e+00 0 0 0
403 1 4 -2.0326648395728009e-01 8.3245925791966044e+00 1.6614479775300762e+01 6.4457681628223229e+00 -1 0 0
417 1 4 -2.0357974656616246e-01 -1.7340559204298485e+00 3.9971220291600602e+00 9.8316491701138453e+00 0 0 0
437 1 4 -1.8583173316880353e-01 8.9962196037950282e+00 2.1796713862714903e+01 5.5172500950677072e+00 -1 0 0
442 1 4 -2.1447982421271933e-01 -3.9028179383770749e+00 1.9989092474204810e+01 3.6525448408244028e+00 0 0 0
458 1 4 -2.0296457722443792e-01 7.5413706018617588e-01 2.0901009008497958e+01 3.1024174568625673e+00 0 0 0
474 1 4 -1.9997850150962376e-01 2.2879406227957411e+00 1.9400136163722770e+01 2.4900626843682780e+00 0 0 0
495 1 4 -1.7549252949412503e-01 5.8357980611328379e+00 1.3458780489023936e+00 6.9991899557619197e+00 0 0 0
506 1 4 -1.7903711451077431e-01 -5.0872990925418486e+00 1.8929650211007232e+01 1.2768012473235967e+01 0 0 -1
513 1 4 -1.7691443114376529e-01 -7.8065917126036943e-02 9.1788478609975801e+00 9.7080029466974800e+00 0 0 0
558 1 4 -1.7969550183667998e-01 2.9494916235565301e+00 6.4578571015136088e-01 5.3971862577555889e+00 0 0 0
565 1 4 -1.9396310766573288e-01 -7.3249344636112017e+00 2.4914190200888246e+01 1.1396737408309292e+01 0 0 0
570 1 4 -1.8268231590177789e-01 -8.1550119905424023e-01 1.4196912581856690e+01 1.5823882468690891e+00 0 0 0
574 1 4 -1.6964649733453877e-01 4.1267155668669346e+00 1.2436156074369675e+00 3.6206930220635405e+00 0 0 0
39 1 1 -1.9377855127606557e-02 7.3080188418276117e+00 2.6702867172294312e+01 6.8508978124349449e+00 0 -1 0
8 1 1 -2.7139652699841886e-02 3.8316947092912499e+00 9.6416066904721038e+00 4.7638411192568721e+00 0 0 0
20 1 1 -2.6268956309754704e-02 2.4687056281877009e+00 2.4994243162970459e+01 2.0828663478602683e+00 0 0 0
24 1 1 -2.5919628134373169e-02 2.4518307144412481e+00 1.0456320238231962e+01 3.0440743023225858e+00 0 0 0
59 1 1 -2.4355517131894273e-02 -1.2934049661420306e+00 1.3321736051212769e+01 1.1064858181793760e+01 0 0 0
63 1 1 -2.8371722952348220e-02 6.0533309083024731e+00 -6.8599676504752138e-01 1.0078474947149758e+01 0 0 0
75 1 1 -2.9917638599269804e-02 -1.2927089407568069e+00 1.5407489295510452e+01 1.2095548777568247e+01 0 0 0
79 1 1 -3.2148930880530419e-02 6.3558286086005094e+00 1.6413031215911404e+00 9.7585271243780447e+00 0 0 0
116 1 2 1.4561032512052016e-01 2.0649879174383994e+00 2.4219326105328175e+01 2.7651477476662674e+00 0 0 0
120 1 2 1.5802878376056181e-01 1.7225749438568514e+00 1.0046903866538997e+01 2.3384059084645172e+00 0 0 0
122 1 2 1.4559944496687507e-01 -2.5480103815240240e+00 1.8101254315924603e+01 3.5751055853420048e+00 0 0 0
126 1 2 1.4923991917931961e-01 1.0856561119419945e+00 3.2322708609429860e+00 6.3847442227370044e+00 0 0 0
143 1 2 1.4437048924519083e-01 4.3477626803453333e+00 2.1564528713082476e+00 1.0383986488747503e+01 0 1 0
155 1 2 1.4585525012494846e-01 -1.9325626301811156e+00 1.2469230156120473e+01 1.0689517093838727e+01 0 0 0
159 1 2 1.4580218831299036e-01 5.8274872913076567e+00 -1.6317149568004690e+00 9.5657420036368244e+00 0 0 0
165 1 2 1.4384315189967090e-01 -3.2731721901158655e+00 2.1891642549471005e+01 7.3961985734133746e+00 0 0 0
171 1 2 1.4195652292203481e-01 -2.0049732623860699e+00 1.5977033114279596e+01 1.2697122061052848e+01 0 0 0
175 1 2 1.4345743950207432e-01 6.1801867446858187e+00 2.5089559819227025e+00 9.0416545493980180e+00 0 0 0
184 1 2 1.3204756022561448e-01 4.0401074673441597e+00 1.0159354510063483e+01 1.4931086448579300e+00 0 0 0
196 1 3 3.9140588130632398e-02 3.9318677254852545e+00 2.5331388504819312e+01 2.4348637856227939e+00 0 0 0
200 1 3 2.7461223667473326e-02 2.4248112558176209e+00 9.5538676856327402e+00 4.2658747360619742e+00 0 0 0
212 1 3 2.5044172763871575e-01 4.6574650046993851e+00 2.4253625798074307e+01 3.2636781215360564e+00 0 0 0
216 1 3 2.4136156259461677e-01 1.9568624908614201e+00 8.1671246958432864e+00 3.8668834435898241e+00 0 0 0
218 1 3 2.5344130691789929e-01 -3.3825722387649115e-01 1.6603058699163334e+01 4.0586780344148607e+00 0 0 0
222 1 3 2.5327936189437522e-01 3.2574896054879012e+00 3.9605425379808317e+00 5.1978357062627447e+00 0 0 0
228 1 3 2.6061151382625269e-02 1.4722996923455312e+00 2.6113369898669859e+01 2.1847838134070034e+00 0 0 0
232 1 3 4.1078651097098025e-02 1.9655588385074940e+00 1.1898602210019721e+01 3.3204288848756489e+00 0 0 0
244 1 3 2.5828044793108595e-01 1.3677185563161449e+00 2.6760334726121737e+01 3.6088025360421057e+00 0 0 0
248 1 3 2.3560399812124289e-01 1.9218557847458824e+00 1.2689936351944947e+01 2.0037720946163780e+00 0 0 0
267 1 3 1.4741219573586619e-02 -1.0101980441744889e+00 1.3019570755238176e+01 1.2544311904306348e+01 0 0 0
271 1 3 2.8000448959422088e-02 4.7727150935944866e+00 -7.0619235957420923e-02 1.0642861557033079e+01 0 1 0
293 1 3 1.9743307340332691e-02 -4.1824535290957714e+00 2.1805028864316046e+01 9.3065282827379754e+00 0 0 0
299 1 3 3.4052382324783262e-02 -2.0372014672585261e+00 1.4589527274648376e+01 1.1070387248472567e+01 0 0 0
303 1 3 3.1848460205271878e-02 6.6280454454494455e+00 2.8413551719330643e-01 9.0705539653992950e+00 0 0 0
305 1 3 2.3812670762507754e-01 1.0764353463363161e+00 6.4259418450273547e+00 1.3640597339468915e+01 0 0 0
309 1 3 2.4850847207396848e-01 -3.0775988770051077e+00 2.0743020582876071e+01 9.5721650204559126e+00 0 0 0
315 1 3 2.5077377355803260e-01 -3.5034430705738902e+00 1.4339936637352487e+01 1.1473609473892697e+01 0 0 0
319 1 3 2.5302906859769125e-01 6.0064939962836732e+00 2.6210075975253710e-01 7.6866459642562157e+00 0 0 0
341 1 3 2.5202240636405726e-01 -3.3673846679179622e+00 2.4526339679606718e+01 8.1937180691206919e+00 0 0 0
347 1 3 2.5360955375909400e-01 -1.1888233341513423e+00 1.7282026264408803e+01 1.0432530274743137e+01 0 0 0
351 1 3 2.3020352945611747e-01 8.7095446966103065e+00 2.4693612571544685e+00 9.5603770247189956e+00 0 0 0
376 1 3 2.4611625092168943e-01 4.7101054356193952e+00 8.1095207077272811e+00 2.7500008114731518e+00 0 0 0
392 1 4 -1.9784680637535756e-01 1.2510510851030694e+00 8.0463214294636174e+00 2.8034091388030276e+00 0 0 0
394 1 4 -1.9262661655020846e-01 -1.3464996006970891e+00 1.6305321324599415e+01 4.7944102209503416e+00 0 0 0
398 1 4 -1.8034808308326167e-01 3.2327197253809388e+00 3.8211811996778424e+00 6.5055164525210145e+00 0 0 0
404 1 4 -1.9060725863895764e-01 5.9386497220133654e+00 2.4199800167179113e+01 3.1774553057521828e+00 0 0 0
408 1 4 -2.0556099490312416e-01 2.2208155120908293e+00 7.1557573042940508e+00 4.6136826998802087e+00 0 0 0
410 1 4 -1.8454178374783792e-01 7.7757106561196654e-01 1.5962653842450855e+01 4.1287080718229889e+00 0 0 0
414 1 4 -1.9844329797586341e-01 4.3592405414786164e+00 3.9874488341681511e+00 4.5675035509796702e+00 0 0 0
420 1 4 -1.5218246151497858e-01 6.7821385071095577e+00 -2.1349974632586441e+00 3.7910644299848340e+00 0 0 0
424 1 4 -2.1558279556865556e-01 2.1520524706812303e+00 1.3952935540631888e+01 2.0372701992135198e+00 0 0 0
436 1 4 -1.6488246514339966e-01 1.5265040637104050e+00 2.6004803187995822e+01 4.6112909464866867e+00 0 0 1
440 1 4 -1.6606377640417178e-01 1.4074313748681897e+00 1.2179033951008913e+01 9.2715854539455589e-01 0 0 1
446 1 4 -1.8407057115880451e-01 5.2950030670855330e-01 5.5570417168447861e+00 6.8315378086981529e+00 0 0 0
452 1 4 -1.9159861504836345e-01 7.9206963388126308e+00 -2.8133897320889600e-01 6.3448345113998461e-01 0 0 0
456 1 4 -2.0363485071675472e-01 4.3640492849779244e-01 1.1757262870632267e+01 5.6283900840847911e+00 0 0 0
472 1 4 -1.7201728032196117e-01 1.5373413765535595e+00 1.0436043110832717e+01 7.0835106105321897e+00 0 0 0
481 1 4 -1.8873607478754365e-01 2.1008993299495904e+00 6.1520908484952912e+00 1.2911937399215873e+01 0 0 0
485 1 4 -1.9612742424312002e-01 -2.2619309953296662e+00 2.0429733673941659e+01 8.6172678540985927e+00 0 0 0
491 1 4 -1.7967641071394572e-01 -4.1867284648122833e+00 1.5308472870972192e+01 1.1933022896984994e+01 0 0 0
497 1 4 -2.3855229956546281e-01 7.4581925696605662e+00 6.0036613324231283e+00 7.5170870482491603e-02 0 0 1
501 1 4 -1.5342239157730819e-01 -2.8649851389336298e+00 2.0349712781373984e+01 1.0770011834919003e+01 0 0 0
507 1 4 -1.7715632171345586e-01 -4.1053773036653176e+00 1.3291427319466562e+01 1.1013757431724422e+01 0 0 0
511 1 4 -1.3815792084366224e-01 5.5678666624671536e+00 -8.2839593677399481e-01 7.1436326589997039e+00 0 0 0
517 1 4 -1.6456333157560957e-01 -3.6748005482213832e+00 2.5639500305730017e+01 8.7610793103221418e+00 0 0 0
523 1 4 -1.7346917505492432e-01 -6.6716624000706526e-01 1.8077685203027727e+01 9.5720619796234487e+00 0 0 0
527 1 4 -1.8723546422284881e-01 9.8593221795008645e+00 2.7128154234377977e+00 1.0079731952997193e+01 0 0 0
529 1 4 -1.5997273900385484e-01 1.4184705802603848e+00 7.8037126182882748e+00 1.0503239731466767e+01 0 0 0
533 1 4 -1.8805010227869823e-01 -2.1669369129774290e+00 2.4062776959291277e+01 8.0927480872048605e+00 0 0 0
539 1 4 -1.6626877164950218e-01 -2.4650208751886535e+00 1.7192582192558309e+01 1.0450962116024979e+01 0 0 0
543 1 4 -1.9641450094958496e-01 8.5846315944448630e+00 2.2940192137678945e+00 8.2886686099000144e+00 0 0 0
548 1 4 -2.1468081321035415e-01 3.7840403396991920e+00 2.1988598144348281e+01 4.4445209018959808e-01 0 0 0
552 1 4 -2.6605603663635652e-01 4.1515409150445741e+00 7.9389423757873221e+00 1.6228403537959264e+00 0 0 0
568 1 4 -2.1250757492233108e-01 5.3945785628959380e+00 7.2354391444170183e+00 3.3499434786523521e+00 0 0 0