ITEM: TIMESTEP
0
ITEM: NUMBER OF ATOMS
336
ITEM: BOX BOUNDS xy xz yz pp pp pp
0.0000000000000000e+00 2.6364000320399999e+01 0.0000000000000000e+00
0.0000000000000000e+00 1.1574000358599999e+01 0.0000000000000000e+00
0.0000000000000000e+00 1.0708999633800000e+01 0.0000000000000000e+00
ITEM: ATOMS id type xs ys zs
1 1 0.0925461 0.355819 0.444445
2 1 0.907454 0.644181 0.555555
3 1 0.157454 0.644181 0.944445
4 1 0.342546 0.355819 0.0555548
5 1 0.907454 0.855819 0.0555548
6 1 0.092546 0.144181 0.944445
7 1 0.342546 0.144181 0.555555
8 1 0.157454 0.855819 0.444445
9 1 0.592546 0.355819 0.444445
10 1 0.407454 0.644181 0.555555
11 1 0.657454 0.644181 0.944445
12 1 0.842546 0.355819 0.0555548
13 1 0.407454 0.855819 0.0555548
14 1 0.592546 0.144181 0.944445
15 1 0.842546 0.144181 0.555555
16 1 0.657454 0.855819 0.444445
17 1 0.024626 0.240745 0.339818
18 1 0.975374 0.759255 0.660182
19 1 0.225374 0.759255 0.839818
20 1 0.274626 0.240745 0.160182
21 1 0.975374 0.740745 0.160182
22 1 0.024626 0.259255 0.839818
23 1 0.274626 0.259255 0.660182
24 1 0.225374 0.740745 0.339818
25 1 0.524626 0.240744 0.339818
26 1 0.475374 0.759256 0.660182
27 1 0.725374 0.759256 0.839818
28 1 0.774626 0.240744 0.160182
29 1 0.475374 0.740744 0.160182
30 1 0.524626 0.259256 0.839818
31 1 0.774626 0.259256 0.660182
32 1 0.725374 0.740744 0.339818
33 1 0.074784 0.379398 0.210842
34 1 0.925216 0.620602 0.789158
35 1 0.175216 0.620602 0.710842
36 1 0.324784 0.379398 0.289158
37 1 0.925216 0.879398 0.289158
38 1 0.074784 0.120602 0.710842
39 1 0.324784 0.120602 0.789158
40 1 0.175216 0.879398 0.210842
41 1 0.574784 0.379398 0.210842
42 1 0.425216 0.620602 0.789158
43 1 0.675216 0.620602 0.710842
44 1 0.824784 0.379398 0.289158
45 1 0.425216 0.879398 0.289158
46 1 0.574784 0.120602 0.710842
47 1 0.824784 0.120602 0.789158
48 1 0.675216 0.879398 0.210842
49 2 0.123649 0.292031 0.424132
50 2 0.876351 0.707969 0.575868
51 2 0.126351 0.707969 0.924132
52 2 0.373649 0.292031 0.0758679
53 2 0.876351 0.792031 0.0758679
54 2 0.123649 0.207969 0.924132
55 2 0.373649 0.207969 0.575868
56 2 0.126351 0.792031 0.424132
57 2 0.623649 0.292031 0.424132
58 2 0.376351 0.707969 0.575868
59 2 0.626351 0.707969 0.924132
60 2 0.873649 0.292031 0.0758679
61 2 0.376351 0.792031 0.0758679
62 2 0.623649 0.207969 0.924132
63 2 0.873649 0.207969 0.575868
64 2 0.626351 0.792031 0.424132
65 2 0.102522 0.408196 0.530199
66 2 0.897478 0.591804 0.469801
67 2 0.147478 0.591804 0.0301987
68 2 0.352522 0.408196 0.969801
69 2 0.897478 0.908196 0.969801
70 2 0.102522 0.0918037 0.0301987
71 2 0.352522 0.0918037 0.469801
72 2 0.147478 0.908196 0.530199
73 2 0.602522 0.408196 0.530199
74 2 0.397478 0.591804 0.469801
75 2 0.647478 0.591804 0.0301987
76 2 0.852522 0.408196 0.969801
77 2 0.397478 0.908196 0.969801
78 2 0.602522 0.0918037 0.0301987
79 2 0.852522 0.0918037 0.469801
80 2 0.647478 0.908196 0.530199
81 2 0.985106 0.206313 0.354008
82 2 0.0148937 0.793687 0.645992
83 2 0.264894 0.793687 0.854008
84 2 0.235106 0.206313 0.145992
85 2 0.0148937 0.706313 0.145992
86 2 0.985106 0.293687 0.854008
87 2 0.235106 0.293687 0.645992
88 2 0.264894 0.706313 0.354008
89 2 0.485106 0.206313 0.354008
90 2 0.514894 0.793687 0.645992
91 2 0.764894 0.793687 0.854008
92 2 0.735106 0.206313 0.145992
93 2 0.514894 0.706313 0.145992
94 2 0.485106 0.293687 0.854008
95 2 0.735106 0.293687 0.645992
96 2 0.764894 0.706313 0.354008
97 2 0.0503827 0.166047 0.318362
98 2 0.949617 0.833953 0.681638
99 2 0.199617 0.833953 0.818362
100 2 0.300383 0.166047 0.181638
101 2 0.949617 0.666047 0.181638
102 2 0.0503827 0.333953 0.818362
103 2 0.300383 0.333953 0.681638
104 2 0.199617 0.666047 0.318362
105 2 0.550383 0.166047 0.318362
106 2 0.449617 0.833953 0.681638
107 2 0.699617 0.833953 0.818362
108 2 0.800383 0.166047 0.181638
109 2 0.449617 0.666047 0.181638
110 2 0.550383 0.333953 0.818362
111 2 0.800383 0.333953 0.681638
112 2 0.699617 0.666047 0.318362
113 2 0.105351 0.315244 0.187229
114 2 0.894649 0.684756 0.812771
115 2 0.144649 0.684756 0.687229
116 2 0.355351 0.315244 0.312771
117 2 0.894649 0.815244 0.312771
118 2 0.105351 0.184756 0.687229
119 2 0.355351 0.184756 0.812771
120 2 0.144649 0.815244 0.187229
121 2 0.605351 0.315244 0.187229
122 2 0.394649 0.684756 0.812771
123 2 0.644649 0.684756 0.687229
124 2 0.855351 0.315244 0.312771
125 2 0.394649 0.815244 0.312771
126 2 0.605351 0.184756 0.687229
127 2 0.855351 0.184756 0.812771
128 2 0.644649 0.815244 0.187229
129 2 0.0728287 0.446659 0.134266
130 2 0.927171 0.553341 0.865734
131 2 0.177171 0.553341 0.634266
132 2 0.322829 0.446659 0.365734
133 2 0.927171 0.946659 0.365734
134 2 0.0728287 0.0533406 0.634266
135 2 0.322829 0.0533406 0.865734
136 2 0.177171 0.946659 0.134266
137 2 0.572829 0.446659 0.134266
138 2 0.427171 0.553341 0.865734
139 2 0.677171 0.553341 0.634266
140 2 0.822829 0.446659 0.365734
141 2 0.427171 0.946659 0.365734
142 2 0.572829 0.0533406 0.634266
143 2 0.822829 0.0533406 0.865734
144 2 0.677171 0.946659 0.134266
145 3 0.0868723 0.43345 0.333678
146 3 0.913128 0.56655 0.666322
147 3 0.163128 0.56655 0.833678
148 3 0.336872 0.43345 0.166322
149 3 0.913128 0.93345 0.166322
150 3 0.0868723 0.0665503 0.833678
151 3 0.336872 0.0665503 0.666322
152 3 0.163128 0.93345 0.333678
153 3 0.586872 0.43345 0.333678
154 3 0.413128 0.56655 0.666322
155 3 0.663128 0.56655 0.833678
156 3 0.836872 0.43345 0.166322
157 3 0.413128 0.93345 0.166322
158 3 0.586872 0.0665502 0.833678
159 3 0.836872 0.0665502 0.666322
160 3 0.663128 0.93345 0.333678
161 3 0.0465843 0.282725 0.461078
162 3 0.953416 0.717275 0.538922
163 3 0.203416 0.717275 0.961078
164 3 0.296584 0.282724 0.0389218
165 3 0.953416 0.782724 0.0389219
166 3 0.0465843 0.217275 0.961078
167 3 0.296584 0.217275 0.538922
168 3 0.203416 0.782725 0.461078
169 3 0.546584 0.282724 0.461078
170 3 0.453416 0.717276 0.538922
171 3 0.703416 0.717276 0.961078
172 3 0.796584 0.282724 0.0389216
173 3 0.453416 0.782724 0.0389216
174 3 0.546584 0.217276 0.961078
175 3 0.796584 0.217276 0.538922
176 3 0.703416 0.782724 0.461078
177 3 0.0278727 0.308077 0.219771
178 3 0.972127 0.691923 0.780229
179 3 0.222127 0.691923 0.719771
180 3 0.277873 0.308077 0.28023
181 3 0.972127 0.808077 0.280229
182 3 0.0278727 0.191923 0.719771
183 3 0.277873 0.191923 0.780229
184 3 0.222127 0.808077 0.219771
185 3 0.527873 0.308077 0.21977
186 3 0.472127 0.691923 0.78023
187 3 0.722127 0.691923 0.71977
188 3 0.777873 0.308077 0.28023
189 3 0.472127 0.808077 0.28023
190 3 0.527873 0.191923 0.71977
191 3 0.777873 0.191923 0.78023
192 3 0.722127 0.808077 0.21977
193 3 0.11523 0.546122 0.335114
194 3 0.88477 0.453878 0.664886
195 3 0.13477 0.453878 0.835114
196 3 0.36523 0.546122 0.164886
197 3 0.88477 0.0461223 0.164886
198 3 0.11523 0.953878 0.835114
199 3 0.36523 0.953878 0.664886
200 3 0.13477 0.0461223 0.335114
201 3 0.61523 0.546122 0.335114
202 3 0.38477 0.453878 0.664886
203 3 0.63477 0.453878 0.835114
204 3 0.86523 0.546122 0.164886
205 3 0.38477 0.0461223 0.164886
206 3 0.61523 0.953878 0.835114
207 3 0.86523 0.953878 0.664886
208 3 0.63477 0.0461223 0.335114
209 3 0.00638597 0.353996 0.531107
210 3 0.993614 0.646004 0.468893
211 3 0.243614 0.646004 0.031107
212 3 0.256386 0.353996 0.968893
213 3 0.993614 0.853996 0.968893
214 3 0.00638598 0.146004 0.031107
215 3 0.256386 0.146004 0.468893
216 3 0.243614 0.853996 0.531107
217 3 0.506386 0.353996 0.531107
218 3 0.493614 0.646004 0.468893
219 3 0.743614 0.646004 0.0311072
220 3 0.756386 0.353996 0.968893
221 3 0.493614 0.853996 0.968893
222 3 0.506386 0.146004 0.0311072
223 3 0.756386 0.146004 0.468893
224 3 0.743614 0.853996 0.531107
225 3 0.981801 0.388899 0.206894
226 3 0.0181987 0.611101 0.793106
227 3 0.268199 0.611101 0.706894
228 3 0.231801 0.388899 0.293106
229 3 0.0181986 0.888899 0.293106
230 3 0.981801 0.111101 0.706894
231 3 0.231801 0.111101 0.793106
232 3 0.268199 0.888899 0.206894
233 3 0.481801 0.388899 0.206894
234 3 0.518199 0.611101 0.793106
235 3 0.768199 0.611101 0.706894
236 3 0.731801 0.388899 0.293106
237 3 0.518199 0.888899 0.293106
238 3 0.481801 0.111101 0.706894
239 3 0.731801 0.111101 0.793106
240 3 0.768199 0.888899 0.206894
241 4 0.115709 0.605412 0.233038
242 4 0.884291 0.394588 0.766962
243 4 0.134291 0.394588 0.733038
244 4 0.365709 0.605412 0.266962
245 4 0.884291 0.105412 0.266962
246 4 0.115709 0.894588 0.733038
247 4 0.365709 0.894588 0.766962
248 4 0.134291 0.105412 0.233038
249 4 0.615709 0.605412 0.233038
250 4 0.384291 0.394588 0.766962
251 4 0.634291 0.394588 0.733038
252 4 0.865709 0.605412 0.266962
253 4 0.384291 0.105412 0.266962
254 4 0.615709 0.894588 0.733038
255 4 0.865709 0.894588 0.766962
256 4 0.634291 0.105412 0.233038
257 4 0.135527 0.578072 0.438093
258 4 0.864473 0.421928 0.561907
259 4 0.114473 0.421928 0.938093
260 4 0.385527 0.578072 0.0619067
261 4 0.864473 0.0780716 0.0619067
262 4 0.135527 0.921928 0.938093
263 4 0.385527 0.921928 0.561907
264 4 0.114473 0.0780716 0.438093
265 4 0.635527 0.578072 0.438093
266 4 0.364473 0.421928 0.561907
267 4 0.614473 0.421928 0.938093
268 4 0.885527 0.578072 0.0619067
269 4 0.364473 0.0780716 0.0619067
270 4 0.635527 0.921928 0.938093
271 4 0.885527 0.921928 0.561907
272 4 0.614473 0.0780716 0.438093
273 4 0.960336 0.315385 0.531626
274 4 0.0396641 0.684615 0.468374
275 4 0.289664 0.684615 0.031626
276 4 0.210336 0.315385 0.968374
277 4 0.0396641 0.815385 0.968374
278 4 0.960336 0.184615 0.031626
279 4 0.210336 0.184615 0.468374
280 4 0.289664 0.815385 0.531626
281 4 0.460336 0.315385 0.531626
282 4 0.539664 0.684615 0.468374
283 4 0.789664 0.684615 0.031626
284 4 0.710336 0.315385 0.968374
285 4 0.539664 0.815385 0.968374
286 4 0.460336 0.184615 0.031626
287 4 0.710336 0.184615 0.468374
288 4 0.789664 0.815385 0.531626
289 4 0.0209291 0.434066 0.607651
290 4 0.979071 0.565934 0.392349
291 4 0.229071 0.565934 0.107651
292 4 0.270929 0.434066 0.892349
293 4 0.979071 0.934066 0.892349
294 4 0.0209291 0.0659336 0.107651
295 4 0.270929 0.0659336 0.392349
296 4 0.229071 0.934066 0.607651
297 4 0.520929 0.434066 0.607651
298 4 0.479071 0.565934 0.392349
299 4 0.729071 0.565934 0.107651
300 4 0.770929 0.434066 0.892349
301 4 0.479071 0.934066 0.892349
302 4 0.520929 0.0659337 0.107651
303 4 0.770929 0.0659337 0.392349
304 4 0.729071 0.934066 0.607651
305 4 0.938627 0.355817 0.251146
306 4 0.0613735 0.644183 0.748854
307 4 0.311373 0.644183 0.751146
308 4 0.188627 0.355817 0.248854
309 4 0.0613735 0.855817 0.248854
310 4 0.938627 0.144183 0.751146
311 4 0.188627 0.144183 0.748854
312 4 0.311373 0.855817 0.251146
313 4 0.438626 0.355817 0.251146
314 4 0.561373 0.644183 0.748854
315 4 0.811373 0.644183 0.751146
316 4 0.688627 0.355817 0.248854
317 4 0.561373 0.855817 0.248854
318 4 0.438627 0.144183 0.751146
319 4 0.688627 0.144183 0.748854
320 4 0.811373 0.855817 0.251146
321 4 0.985542 0.477702 0.133918
322 4 0.0144583 0.522298 0.866082
323 4 0.264458 0.522298 0.633918
324 4 0.235542 0.477702 0.366082
325 4 0.0144583 0.977702 0.366082
326 4 0.985542 0.0222981 0.633918
327 4 0.235542 0.0222981 0.866082
328 4 0.264458 0.977702 0.133918
329 4 0.485542 0.477702 0.133918
330 4 0.514458 0.522298 0.866082
331 4 0.764458 0.522298 0.633918
332 4 0.735542 0.477702 0.366082
333 4 0.514458 0.977702 0.366082
334 4 0.485542 0.0222981 0.633918
335 4 0.735542 0.0222981 0.866082
336 4 0.764458 0.977702 0.133918
ITEM: TIMESTEP
1000
ITEM: NUMBER OF ATOMS
336
ITEM: BOX BOUNDS xy xz yz pp pp pp
-2.9699651361410240e-01 2.6657005290816944e+01 6.2096353648440461e-02
-3.5228218787631987e-01 1.1876461125073060e+01 -6.6087896845699518e-02
-2.4042519861678979e-01 1.0949424832416803e+01 -4.9821421403197626e-02
ITEM: ATOMS id type xs ys zs
1 1 0.0949573 0.357486 0.435956
2 1 0.922199 0.623373 0.553187
3 1 0.167491 0.585931 0.984241
4 1 0.338087 0.378939 0.0432776
5 1 0.903549 0.898958 0.0597762
6 1 0.0691137 0.137205 0.964057
7 1 0.33214 0.103205 0.569547
8 1 0.166992 0.892593 0.484174
9 1 0.60465 0.35394 0.463263
10 1 0.42791 0.577809 0.551937
11 1 0.651926 0.632172 0.920622
12 1 0.843719 0.347229 0.0568289
13 1 0.410963 0.847692 0.0275639
14 1 0.583632 0.127126 0.976604
15 1 0.828925 0.125904 0.555575
16 1 0.666615 0.843079 0.434569
17 1 0.0280156 0.25762 0.314058
18 1 0.981425 0.761471 0.659293
19 1 0.218942 0.727512 0.874732
20 1 0.283734 0.251679 0.161024
21 1 0.969134 0.781449 0.169803
22 1 0.0170984 0.265885 0.829651
23 1 0.269475 0.245504 0.648564
24 1 0.213145 0.755062 0.346214
25 1 0.536159 0.242989 0.365203
26 1 0.467827 0.732894 0.657748
27 1 0.723224 0.750014 0.844012
28 1 0.773655 0.252376 0.171788
29 1 0.480031 0.739996 0.137282
30 1 0.519984 0.256352 0.869574
31 1 0.760553 0.2427 0.667247
32 1 0.734355 0.741518 0.317432
33 1 0.0956846 0.375058 0.217774
34 1 0.939687 0.618204 0.786584
35 1 0.178474 0.57204 0.753019
36 1 0.33045 0.404981 0.261883
37 1 0.91706 0.911428 0.288403
38 1 0.0808686 0.136927 0.734302
39 1 0.320356 0.132757 0.787868
40 1 0.153504 0.891824 0.261599
41 1 0.574824 0.402353 0.250475
42 1 0.424261 0.585286 0.774761
43 1 0.671924 0.629823 0.703163
44 1 0.837042 0.371113 0.279365
45 1 0.412104 0.840812 0.253758
46 1 0.564654 0.101281 0.74643
47 1 0.826478 0.128772 0.782397
48 1 0.677957 0.87198 0.20934
49 2 0.127545 0.30006 0.453852
50 2 0.883365 0.64336 0.513236
51 2 0.132892 0.608602 0.0316332
52 2 0.375427 0.341187 0.0501341
53 2 0.87017 0.847951 0.0382785
54 2 0.0954762 0.160748 0.0369491
55 2 0.365325 0.118848 0.51096
56 2 0.139862 0.88154 0.555652
57 2 0.638058 0.300496 0.455981
58 2 0.408316 0.551479 0.472082
59 2 0.620981 0.694886 0.919437
60 2 0.875249 0.301151 0.0222589
61 2 0.382506 0.790672 0.00160838
62 2 0.61897 0.162923 0.0106337
63 2 0.860731 0.159729 0.504645
64 2 0.634465 0.786872 0.450998
65 2 0.0984997 0.403385 0.521915
66 2 0.935861 0.558704 0.488761
67 2 0.177703 0.518056 0.0458076
68 2 0.340624 0.411104 0.952021
69 2 0.906634 0.96039 0.985895
70 2 0.0528492 0.0661768 0.0158792
71 2 0.318301 0.02562 0.529794
72 2 0.190592 0.960355 0.51988
73 2 0.61285 0.400003 0.545777
74 2 0.456924 0.509243 0.550598
75 2 0.646091 0.584439 0.99778
76 2 0.839236 0.412011 0.986534
77 2 0.412819 0.913186 0.964695
78 2 0.581071 0.0581285 0.0429042
79 2 0.819664 0.0516234 0.49541
80 2 0.664335 0.893983 0.517028
81 2 0.9869 0.254631 0.314973
82 2 0.0177317 0.802035 0.6353
83 2 0.253846 0.776908 0.879033
84 2 0.245283 0.218449 0.157788
85 2 0.0070463 0.755552 0.157247
86 2 0.976946 0.28086 0.81261
87 2 0.232957 0.283264 0.632462
88 2 0.248124 0.707331 0.334382
89 2 0.502151 0.195905 0.377272
90 2 0.499524 0.791401 0.648237
91 2 0.762014 0.761174 0.870945
92 2 0.732256 0.236871 0.162727
93 2 0.521355 0.726606 0.139257
94 2 0.481406 0.292719 0.88085
95 2 0.720748 0.264368 0.657655
96 2 0.771453 0.707303 0.30952
97 2 0.0424347 0.17265 0.308415
98 2 0.957634 0.828078 0.6931
99 2 0.19088 0.793929 0.863322
100 2 0.305817 0.178951 0.175393
101 2 0.948084 0.711258 0.200612
102 2 0.0318565 0.349086 0.826546
103 2 0.289388 0.323148 0.665853
104 2 0.184354 0.691279 0.340125
105 2 0.561908 0.181708 0.337609
106 2 0.438674 0.795514 0.674603
107 2 0.711624 0.837066 0.832197
108 2 0.790952 0.172686 0.193801
109 2 0.463897 0.654722 0.136487
110 2 0.542255 0.330653 0.851993
111 2 0.781398 0.320787 0.683126
112 2 0.708616 0.672439 0.30201
113 2 0.12467 0.319131 0.187641
114 2 0.909919 0.661178 0.832081
115 2 0.149739 0.58946 0.681276
116 2 0.365299 0.369987 0.298367
117 2 0.892608 0.856814 0.343221
118 2 0.111022 0.193459 0.707385
119 2 0.3457 0.190075 0.840656
120 2 0.12365 0.838016 0.231135
121 2 0.596917 0.397227 0.166063
122 2 0.393474 0.617407 0.832499
123 2 0.644238 0.690382 0.673082
124 2 0.857585 0.295861 0.302786
125 2 0.386555 0.778502 0.289024
126 2 0.588976 0.108684 0.660576
127 2 0.848739 0.201619 0.81808
128 2 0.649869 0.82503 0.158882
129 2 0.097937 0.441937 0.151436
130 2 0.949042 0.557667 0.858339
131 2 0.196214 0.496405 0.712969
132 2 0.322583 0.46398 0.333922
133 2 0.920702 0.975162 0.358181
134 2 0.0825498 0.0680715 0.662363
135 2 0.313373 0.0777141 0.865672
136 2 0.151496 0.953407 0.188125
137 2 0.553207 0.479939 0.238765
138 2 0.439032 0.516212 0.831767
139 2 0.678973 0.576381 0.621235
140 2 0.846228 0.425194 0.354755
141 2 0.411306 0.90304 0.321767
142 2 0.547284 0.0232293 0.721583
143 2 0.825384 0.0569599 0.847024
144 2 0.682484 0.94546 0.151945
145 3 0.112964 0.42114 0.334901
146 3 0.916304 0.572641 0.673599
147 3 0.151763 0.542066 0.863852
148 3 0.334013 0.461574 0.143202
149 3 0.890377 0.949254 0.178887
150 3 0.0974327 0.0974101 0.860046
151 3 0.349538 0.0761959 0.690971
152 3 0.140302 0.938218 0.381166
153 3 0.60795 0.423743 0.354157
154 3 0.399081 0.551161 0.662212
155 3 0.647815 0.572626 0.805576
156 3 0.860978 0.406593 0.166192
157 3 0.390312 0.891804 0.143836
158 3 0.593854 0.0765768 0.855982
159 3 0.852343 0.0905816 0.67072
160 3 0.650641 0.901771 0.32337
161 3 0.046078 0.297484 0.433286
162 3 0.958654 0.716085 0.543393
163 3 0.202334 0.679361 0.992892
164 3 0.297509 0.294789 0.0392863
165 3 0.945998 0.819387 0.0553785
166 3 0.0277409 0.223097 0.950896
167 3 0.292553 0.191586 0.541783
168 3 0.202708 0.795465 0.470844
169 3 0.558946 0.287822 0.477639
170 3 0.454934 0.680678 0.537768
171 3 0.697004 0.69869 0.948514
172 3 0.797041 0.281201 0.0543366
173 3 0.459452 0.785508 0.0237178
174 3 0.538027 0.201502 0.981365
175 3 0.782676 0.1965 0.553029
176 3 0.716248 0.781139 0.436443
177 3 0.0450371 0.318058 0.20779
178 3 0.984865 0.691635 0.765471
179 3 0.21785 0.65902 0.762912
180 3 0.287743 0.324047 0.268433
181 3 0.967007 0.857818 0.273808
182 3 0.0335533 0.199321 0.719489
183 3 0.270731 0.185403 0.763368
184 3 0.201574 0.829695 0.24693
185 3 0.536333 0.310543 0.254544
186 3 0.465682 0.670015 0.771071
187 3 0.718698 0.694866 0.726248
188 3 0.783985 0.330027 0.274498
189 3 0.464229 0.792938 0.252545
190 3 0.522602 0.187914 0.759885
191 3 0.772949 0.171612 0.771479
192 3 0.727499 0.81562 0.213104
193 3 0.107386 0.549669 0.342805
194 3 0.891884 0.45909 0.675151
195 3 0.136515 0.420073 0.86201
196 3 0.374528 0.549883 0.141216
197 3 0.884761 0.0755356 0.168664
198 3 0.101896 0.973035 0.859241
199 3 0.353423 0.950313 0.700992
200 3 0.133371 0.0643757 0.387579
201 3 0.618124 0.547739 0.370967
202 3 0.379787 0.432716 0.666737
203 3 0.654268 0.444683 0.802693
204 3 0.860484 0.532562 0.154082
205 3 0.38748 0.0179287 0.146546
206 3 0.61405 0.958189 0.858153
207 3 0.866465 0.970961 0.660869
208 3 0.634285 0.0214001 0.335349
209 3 0.00540127 0.369238 0.489297
210 3 0.000531522 0.682869 0.461544
211 3 0.248504 0.647858 0.0648878
212 3 0.25109 0.333262 0.971686
213 3 0.987392 0.856383 0.971031
214 3 0.979673 0.178742 0.00174329
215 3 0.254802 0.144547 0.456932
216 3 0.252541 0.81186 0.531995
217 3 0.520906 0.350393 0.555299
218 3 0.501559 0.652576 0.464254
219 3 0.73496 0.630273 0.0180256
220 3 0.757766 0.339814 0.977687
221 3 0.500503 0.846793 0.956848
222 3 0.493585 0.139115 0.0328403
223 3 0.74382 0.159302 0.462424
224 3 0.754908 0.839244 0.512047
225 3 0.00631278 0.4025 0.171946
226 3 0.0304329 0.615868 0.759629
227 3 0.269433 0.608097 0.738509
228 3 0.239889 0.390683 0.286355
229 3 0.00949304 0.94219 0.265957
230 3 0.992633 0.124727 0.675036
231 3 0.228367 0.102251 0.772812
232 3 0.246571 0.909139 0.223356
233 3 0.485101 0.357158 0.221836
234 3 0.514994 0.609546 0.789685
235 3 0.764441 0.619698 0.709884
236 3 0.744333 0.417052 0.289694
237 3 0.502166 0.878215 0.290661
238 3 0.4722 0.140978 0.722216
239 3 0.734303 0.0818294 0.785764
240 3 0.772516 0.892836 0.20316
241 4 0.111414 0.605649 0.245336
242 4 0.89367 0.40828 0.774799
243 4 0.136868 0.369897 0.758869
244 4 0.381581 0.608081 0.234393
245 4 0.883412 0.13149 0.267034
246 4 0.0914211 0.915109 0.766578
247 4 0.345009 0.904474 0.802111
248 4 0.133886 0.124092 0.29446
249 4 0.620913 0.610952 0.278962
250 4 0.385447 0.378143 0.76436
251 4 0.675172 0.399271 0.713116
252 4 0.861066 0.595281 0.247762
253 4 0.387332 0.0681888 0.248125
254 4 0.609778 0.899604 0.763117
255 4 0.862536 0.912181 0.756849
256 4 0.636983 0.0843689 0.244991
257 4 0.122306 0.600439 0.43894
258 4 0.875165 0.414821 0.576848
259 4 0.11289 0.378307 0.950094
260 4 0.390463 0.577655 0.0358185
261 4 0.864081 0.116255 0.0741825
262 4 0.120689 0.916748 0.949631
263 4 0.36565 0.891122 0.608131
264 4 0.124483 0.108019 0.491619
265 4 0.640653 0.580054 0.468836
266 4 0.372154 0.381964 0.566123
267 4 0.62328 0.384546 0.862616
268 4 0.880438 0.568202 0.0548348
269 4 0.368779 0.0698418 0.0539024
270 4 0.646204 0.9336 0.940171
271 4 0.879356 0.925143 0.560266
272 4 0.616731 0.0576377 0.437626
273 4 0.962588 0.384029 0.437088
274 4 0.0336404 0.755475 0.433144
275 4 0.286481 0.71677 0.0655185
276 4 0.211636 0.275711 0.985475
277 4 0.03032 0.807214 0.969796
278 4 0.937588 0.199276 0.949546
279 4 0.218907 0.208506 0.422405
280 4 0.293683 0.787593 0.476956
281 4 0.474212 0.335089 0.535126
282 4 0.540532 0.711213 0.484185
283 4 0.777009 0.676609 0.0458643
284 4 0.711056 0.314079 0.989899
285 4 0.546841 0.816176 0.959739
286 4 0.450038 0.184393 0.0276605
287 4 0.697018 0.181381 0.485447
288 4 0.799562 0.800825 0.515154
289 4 0.0132092 0.410158 0.595301
290 4 0.997593 0.592553 0.398099
291 4 0.246494 0.579039 0.152049
292 4 0.253861 0.410555 0.892665
293 4 0.975204 0.927723 0.89088
294 4 0.981555 0.128476 0.10334
295 4 0.255225 0.0396019 0.434776
296 4 0.255179 0.869333 0.62982
297 4 0.531299 0.425637 0.63386
298 4 0.50082 0.580261 0.379867
299 4 0.722059 0.548751 0.0838749
300 4 0.770683 0.400536 0.886162
301 4 0.486283 0.914537 0.87464
302 4 0.498146 0.048228 0.0934729
303 4 0.756415 0.104611 0.369036
304 4 0.74226 0.915007 0.590696
305 4 0.958988 0.383417 0.178217
306 4 0.0641434 0.625824 0.679304
307 4 0.308005 0.608656 0.807343
308 4 0.200811 0.370414 0.221617
309 4 0.0418402 0.937962 0.181157
310 4 0.945072 0.150753 0.671871
311 4 0.196974 0.0900881 0.685853
312 4 0.291367 0.880359 0.251305
313 4 0.447686 0.355773 0.29472
314 4 0.5551 0.640327 0.733728
315 4 0.807659 0.633974 0.761546
316 4 0.698137 0.404254 0.26016
317 4 0.548755 0.868611 0.261091
318 4 0.431593 0.148916 0.783213
319 4 0.68943 0.0959932 0.747209
320 4 0.810752 0.881119 0.274033
321 4 0.0211726 0.493188 0.121963
322 4 0.0382806 0.54428 0.84384
323 4 0.272859 0.557413 0.635242
324 4 0.236042 0.458212 0.374012
325 4 0.00973199 0.0229456 0.342153
326 4 0.00704231 0.0336811 0.624589
327 4 0.228966 0.0298163 0.858363
328 4 0.238022 0.995662 0.161187
329 4 0.483009 0.418398 0.128314
330 4 0.519113 0.537358 0.873727
331 4 0.761925 0.543293 0.630812
332 4 0.759686 0.507835 0.339166
333 4 0.488744 0.962181 0.354253
334 4 0.471227 0.0901729 0.619123
335 4 0.746258 0.992835 0.846187
336 4 0.7712 0.962825 0.117019
ITEM: TIMESTEP
2000
ITEM: NUMBER OF ATOMS
336
ITEM: BOX BOUNDS xy xz yz pp pp pp
-5.1093634052964687e-01 2.6814207329322652e+01 1.9918430453611682e-01
-2.3443047366143843e-01 1.1734413457600862e+01 -2.5991363614318763e-01
-6.8674837630830599e-01 1.1395748010108342e+01 -7.4017374660552596e-02
ITEM: ATOMS id type xs ys zs
1 1 0.0913385 0.33852 0.415989
2 1 0.898981 0.695119 0.596595
3 1 0.163523 0.65409 0.94452
4 1 0.336029 0.360738 0.0617612
5 1 0.880457 0.835695 0.110183
6 1 0.0851551 0.173278 0.921134
7 1 0.367249 0.153151 0.624116
8 1 0.139567 0.817899 0.450321
9 1 0.615872 0.313042 0.385069
10 1 0.408333 0.661405 0.557396
11 1 0.64443 0.659712 0.875372
12 1 0.862562 0.339867 0.0849208
13 1 0.391142 0.811709 0.0864697
14 1 0.592794 0.169272 0.945173
15 1 0.863397 0.185016 0.603963
16 1 0.643979 0.819286 0.414649
17 1 0.0296454 0.277911 0.262816
18 1 0.972287 0.779404 0.696221
19 1 0.231949 0.738531 0.836595
20 1 0.291217 0.245335 0.206178
21 1 0.966528 0.782273 0.17584
22 1 0.0333546 0.270231 0.775482
23 1 0.28032 0.207809 0.680134
24 1 0.204883 0.742675 0.312534
25 1 0.52781 0.240851 0.3613
26 1 0.468292 0.761344 0.682038
27 1 0.725124 0.747153 0.822434
28 1 0.795991 0.255946 0.205055
29 1 0.467215 0.746482 0.202577
30 1 0.527942 0.267715 0.828119
31 1 0.791534 0.245775 0.72017
32 1 0.71304 0.729088 0.300948
33 1 0.102363 0.396646 0.212765
34 1 0.919102 0.632852 0.787221
35 1 0.168588 0.621872 0.742342
36 1 0.31872 0.442768 0.259658
37 1 0.911573 0.896497 0.304908
38 1 0.0937179 0.11257 0.720444
39 1 0.336109 0.0829548 0.807626
40 1 0.135367 0.871838 0.245465
41 1 0.573617 0.331496 0.202794
42 1 0.402102 0.637944 0.769241
43 1 0.678601 0.614922 0.68729
44 1 0.856618 0.400742 0.287238
45 1 0.400707 0.87488 0.289426
46 1 0.588006 0.14091 0.737517
47 1 0.8525 0.0971879 0.799379
48 1 0.654368 0.866139 0.205016
49 2 0.115802 0.260567 0.409383
50 2 0.871677 0.764804 0.619721
51 2 0.135231 0.724801 0.942629
52 2 0.375301 0.333713 0.0740146
53 2 0.859072 0.760782 0.139251
54 2 0.118282 0.229212 0.930566
55 2 0.380085 0.23032 0.667512
56 2 0.111714 0.750382 0.45041
57 2 0.639272 0.234604 0.371003
58 2 0.375574 0.713626 0.525633
59 2 0.613439 0.721532 0.853741
60 2 0.891358 0.275533 0.10264
61 2 0.369901 0.732645 0.0860967
62 2 0.618657 0.238641 0.948249
63 2 0.887878 0.257357 0.626053
64 2 0.618045 0.748506 0.418403
65 2 0.0924915 0.367626 0.502721
66 2 0.883484 0.667248 0.515439
67 2 0.156944 0.616774 0.0262223
68 2 0.330026 0.391537 0.977277
69 2 0.856371 0.866719 0.0400099
70 2 0.083832 0.133728 0.00399565
71 2 0.391957 0.138201 0.551488
72 2 0.131867 0.855061 0.532685
73 2 0.638869 0.361273 0.446434
74 2 0.411974 0.596091 0.491544
75 2 0.623373 0.620661 0.940814
76 2 0.87078 0.366892 0.999243
77 2 0.380917 0.847732 0.00550195
78 2 0.599217 0.133233 0.0248937
79 2 0.874549 0.156053 0.520586
80 2 0.640325 0.871292 0.491061
81 2 0.990989 0.262983 0.241064
82 2 0.0123824 0.796915 0.685958
83 2 0.272314 0.761704 0.841479
84 2 0.258409 0.188498 0.212469
85 2 0.00446522 0.767664 0.154191
86 2 0.998036 0.31111 0.757519
87 2 0.24498 0.210634 0.634068
88 2 0.246163 0.728976 0.307414
89 2 0.49006 0.239341 0.398416
90 2 0.509463 0.771372 0.690694
91 2 0.763048 0.759548 0.859736
92 2 0.755123 0.238235 0.211821
93 2 0.507656 0.722258 0.19416
94 2 0.488859 0.295753 0.824403
95 2 0.751717 0.266121 0.714635
96 2 0.751034 0.702381 0.315182
97 2 0.0470184 0.195541 0.246441
98 2 0.958747 0.863554 0.728929
99 2 0.214941 0.820407 0.812689
100 2 0.317293 0.184221 0.250542
101 2 0.961603 0.698363 0.207978
102 2 0.0604549 0.338485 0.757185
103 2 0.284978 0.294893 0.710671
104 2 0.195248 0.656304 0.285027
105 2 0.535636 0.153129 0.349717
106 2 0.455436 0.851581 0.689455
107 2 0.713149 0.83075 0.793113
108 2 0.808122 0.172983 0.225019
109 2 0.451305 0.672293 0.239843
110 2 0.546486 0.346594 0.808704
111 2 0.807513 0.32412 0.755256
112 2 0.695615 0.649868 0.275197
113 2 0.126584 0.327381 0.183393
114 2 0.896549 0.691479 0.83366
115 2 0.144379 0.696706 0.712767
116 2 0.354701 0.44173 0.310419
117 2 0.89116 0.830358 0.350299
118 2 0.12426 0.14743 0.676056
119 2 0.353546 0.14399 0.869052
120 2 0.108965 0.813197 0.208452
121 2 0.585783 0.247754 0.175354
122 2 0.375452 0.700942 0.806811
123 2 0.656975 0.670208 0.629841
124 2 0.886864 0.348014 0.323365
125 2 0.377978 0.810785 0.328277
126 2 0.610885 0.212043 0.710188
127 2 0.877636 0.148242 0.857243
128 2 0.631471 0.803007 0.162633
129 2 0.11208 0.462521 0.158358
130 2 0.919522 0.551915 0.83554
131 2 0.16277 0.560714 0.671431
132 2 0.29807 0.518084 0.288127
133 2 0.912358 0.976361 0.352086
134 2 0.0945359 0.0259382 0.685875
135 2 0.332815 0.999725 0.85407
136 2 0.128215 0.94108 0.187901
137 2 0.569197 0.384366 0.125377
138 2 0.401278 0.564025 0.827561
139 2 0.685876 0.543704 0.623678
140 2 0.855993 0.4775 0.338815
141 2 0.393804 0.954128 0.336494
142 2 0.589278 0.0761588 0.674183
143 2 0.858162 0.0196238 0.852776
144 2 0.646903 0.937727 0.148233
145 3 0.114861 0.413134 0.333409
146 3 0.891011 0.608263 0.682446
147 3 0.145812 0.585221 0.845726
148 3 0.331369 0.461945 0.142267
149 3 0.876584 0.916421 0.206745
150 3 0.106 0.0916009 0.839662
151 3 0.373064 0.0683011 0.714861
152 3 0.119957 0.895825 0.360824
153 3 0.615086 0.372141 0.275628
154 3 0.386033 0.603594 0.656096
155 3 0.646007 0.581669 0.775507
156 3 0.87668 0.422182 0.174964
157 3 0.374706 0.885106 0.178075
158 3 0.609939 0.103048 0.846347
159 3 0.876366 0.0934557 0.688549
160 3 0.629087 0.887795 0.312209
161 3 0.0404113 0.295828 0.384409
162 3 0.94544 0.767087 0.585807
163 3 0.211172 0.7154 0.950164
164 3 0.305347 0.26307 0.0853666
165 3 0.9312 0.79506 0.0802374
166 3 0.0395698 0.242026 0.895383
167 3 0.316332 0.194188 0.588999
168 3 0.18923 0.756663 0.429842
169 3 0.569467 0.276172 0.438296
170 3 0.454452 0.726317 0.565313
171 3 0.689179 0.721885 0.914533
172 3 0.815004 0.279147 0.0904177
173 3 0.444569 0.764414 0.0915894
174 3 0.544667 0.235397 0.941711
175 3 0.811977 0.230092 0.606916
176 3 0.693141 0.755615 0.412636
177 3 0.0522076 0.354001 0.180466
178 3 0.9683 0.688887 0.781147
179 3 0.221215 0.664792 0.74069
180 3 0.286056 0.34364 0.280996
181 3 0.962632 0.857812 0.27597
182 3 0.0481723 0.180658 0.690779
183 3 0.286498 0.136122 0.78068
184 3 0.18804 0.827453 0.230684
185 3 0.524481 0.29931 0.251565
186 3 0.452234 0.694234 0.779462
187 3 0.7274 0.674287 0.721323
188 3 0.810295 0.336917 0.295536
189 3 0.453317 0.826727 0.294979
190 3 0.535592 0.187039 0.733485
191 3 0.803203 0.157175 0.806237
192 3 0.704446 0.808803 0.206174
193 3 0.113867 0.537607 0.369644
194 3 0.900664 0.492356 0.630295
195 3 0.148051 0.458105 0.858082
196 3 0.37443 0.540751 0.136292
197 3 0.875116 0.0367096 0.16212
198 3 0.103951 0.965791 0.870863
199 3 0.36899 0.951627 0.664208
200 3 0.1286 0.0179137 0.394633
201 3 0.615852 0.499935 0.286928
202 3 0.395218 0.479802 0.630361
203 3 0.648903 0.45578 0.805872
204 3 0.870548 0.543234 0.136567
205 3 0.372203 0.00888108 0.143127
206 3 0.606859 0.97731 0.856572
207 3 0.866917 0.981869 0.628741
208 3 0.629707 0.0121779 0.340425
209 3 0.999872 0.373039 0.428474
210 3 0.981021 0.716321 0.504365
211 3 0.252033 0.669122 0.0263883
212 3 0.256361 0.274469 0.0200005
213 3 0.953725 0.864083 0.987297
214 3 0.991796 0.192936 0.941072
215 3 0.293835 0.116767 0.500193
216 3 0.229947 0.793841 0.508082
217 3 0.54902 0.360538 0.523437