LAMMPS data file via write_data, version 15 Apr 2020, timestep = 80000

336 atoms
4 atom types

-8.0135023619650525e-02 2.6444135344020093e+01 xlo xhi
1.4398930591007364e-01 1.1430011052690206e+01 ylo yhi
-9.5003927949133526e-01 1.1659038913291081e+01 zlo zhi
9.1852519682196737e-02 -3.2163627109138077e-01 1.1792658224418301e-01 xy xz yz

Masses

1 12.0107
2 1.00794
3 14.0067
4 15.9994

Atoms # full

1 1 1 5.5362157020521580e-02 1.4893444598229350e-01 3.6625857947161613e+00 3.3979735106412097e+00 0 0 0
2 1 1 7.0646060759934626e-02 2.5366392905976497e+01 7.7135837974479564e+00 6.9985967515301288e+00 0 0 0
3 1 1 5.1182502190217249e-02 5.1537734056733751e+00 7.9762693516270380e+00 9.3540627179453164e+00 0 0 0
4 1 1 3.7547151708136106e-02 6.7418490407479554e+00 4.5957982184061867e+00 1.2532653003983607e+00 0 0 0
5 1 1 6.4787047213417381e-02 2.2436086489628664e+01 9.4544298524302572e+00 4.8488583088188220e-01 0 0 0
6 1 1 6.2644750256512088e-02 3.0567067097451641e+00 2.8251587004617389e+00 9.8610995808386193e+00 0 0 0
7 1 1 7.2108443728856636e-02 1.0294141627351024e+01 2.1313356886925026e+00 7.4314734231260147e+00 0 0 0
8 1 1 7.6311888180107368e-02 2.8400086797941535e+00 9.3395662903767445e+00 3.4823374836880614e+00 0 0 0
9 1 1 5.6343578728148595e-02 1.4265502891058889e+01 4.3838201068261018e+00 3.4886640949718037e+00 0 0 0
10 1 1 4.2325167921431733e-02 1.1923595588514104e+01 6.8789683552825176e+00 7.6426788648181301e+00 0 0 0
11 1 1 5.2700191295918769e-02 1.8707501091646836e+01 7.3772930507878165e+00 9.2908781351898604e+00 0 0 0
12 1 1 5.3385290790300882e-02 2.0640259414480731e+01 4.2544097865719852e+00 1.3013531311191375e+00 0 0 0
13 1 1 6.4322147825353282e-02 9.4716388964061426e+00 1.0050665767029413e+01 1.3770152986305852e+00 0 0 0
14 1 1 7.3681834576221183e-02 1.6842579035345327e+01 2.0774568925105230e+00 9.9792436174334682e+00 0 0 0
15 1 1 5.0706774819599947e-02 2.1819509218405781e+01 3.2826819751574070e+00 8.2154804572912976e+00 0 0 0
16 1 1 3.8718811724220273e-02 1.5920819288449671e+01 9.9136646252160254e+00 3.1491564910886947e+00 0 0 0
17 1 1 3.7401347482073632e-02 2.5239687236386207e+01 2.5996019328040836e+00 1.6465831548618186e+00 -1 0 0
18 1 1 3.9740092274764632e-02 6.7218610038401838e-01 8.8733518893497720e+00 8.3871227211097814e+00 1 0 0
19 1 1 3.4075246201692257e-02 7.2340486663161290e+00 9.1980715042653287e+00 8.3730280746150854e+00 0 0 0
20 1 1 4.0436892785300757e-02 5.3620482628815127e+00 2.8884645967524687e+00 2.5124308931977177e+00 0 0 0
21 1 1 4.7846357235805284e-02 2.4311617043233152e+01 8.3969523070701797e+00 1.8577338109563666e+00 0 0 0
22 1 1 5.4818461032937749e-02 1.6012767148652767e+00 3.3589728834741361e+00 7.8048750971064944e+00 0 0 0
23 1 1 5.1722470437379292e-02 8.6839103345101787e+00 3.6859963416366628e+00 8.5631803132971509e+00 0 0 0
24 1 1 5.0988426837419845e-02 4.5617152255748366e+00 8.0932516812476401e+00 2.1854938709582195e+00 0 0 0
25 1 1 4.0201520218102360e-02 1.2303862446532934e+01 2.9026114242649963e+00 2.6493901159939695e+00 0 0 0
26 1 1 4.2087280646949873e-02 1.3822836483017735e+01 8.5045933474045405e+00 8.1418396194780343e+00 0 0 0
27 1 1 2.9063607821673835e-02 2.0730277235194141e+01 8.9588132580321886e+00 8.9915609916293793e+00 0 0 0
28 1 1 4.0556624802493182e-02 1.8780713806481309e+01 2.7262508194975448e+00 2.1884459322013541e+00 0 0 0
29 1 1 5.9916299774391335e-02 1.1480243444409224e+01 8.6114942187136929e+00 2.0753556798338058e+00 0 0 0
30 1 1 3.7878703690839371e-02 1.5058977652849627e+01 3.0135913366521798e+00 8.3943815545799065e+00 0 0 0
31 1 1 5.8594066902803513e-02 2.3428917605522741e+01 2.1760201324813702e+00 9.8299049950997723e+00 0 0 0
32 1 1 6.0665565146046936e-02 1.7696603142708156e+01 8.2091564650711248e+00 2.3686298026596804e+00 0 0 0
33 1 1 6.2746631466074440e-02 6.4836796976358613e-01 4.0325653543370255e+00 9.6715262116940059e-01 0 0 0
34 1 1 5.3066929448041200e-02 2.5348063522328481e+01 7.6329915179227266e+00 9.4836956173999187e+00 0 0 0
35 1 1 7.8254541310473894e-02 5.4672905873169748e+00 8.4002655885428865e+00 6.8763617555448473e+00 0 0 0
36 1 1 6.0544240744876694e-02 6.7420842869195354e+00 4.4637823662119915e+00 3.8208781933308265e+00 0 0 0
37 1 1 5.6282650513121174e-02 2.2534661606386138e+01 9.7017384503249229e+00 3.0624157677765149e+00 0 0 0
38 1 1 5.2921296636717303e-02 3.8398066756012614e+00 2.2053582134762855e+00 7.4903067380455646e+00 0 0 0
39 1 1 6.3858330302704436e-02 9.9940210877558222e+00 1.9498170474883019e+00 9.9438468089078924e+00 0 0 0
40 1 1 5.8244246027372173e-02 2.8615651423348827e+00 9.4586678727775659e+00 1.0253450408602749e+00 0 0 0
41 1 1 7.0352618691756436e-02 1.3777075664550427e+01 4.1343648495175875e+00 9.8602284935828455e-01 0 0 0
42 1 1 4.5997567491181460e-02 1.2483537686590701e+01 7.6550057696538287e+00 9.9932864153083774e+00 0 0 0
43 1 1 6.8807468086791390e-02 1.9429923819915526e+01 8.1317286819279619e+00 6.9235281648028115e+00 0 0 0
44 1 1 4.2919929104359475e-02 2.0416742984200660e+01 3.6268021469743394e+00 3.8126611046681669e+00 0 0 0
45 1 1 6.0995618974423585e-02 9.8991572283895373e+00 9.4315188909155214e+00 3.8018037200464301e+00 0 0 0
46 1 1 5.1789233826857496e-02 1.7086127188979834e+01 1.7946218223587675e+00 7.4413414509312599e+00 0 0 0
47 1 1 4.5467199336440917e-02 2.3622182099954241e+01 1.7358534604991831e+00 7.2908127984559243e+00 0 0 0
48 1 1 5.8204821602093997e-02 1.6136807350722780e+01 9.3489500797117149e+00 6.9390515287527865e-01 0 0 0
49 1 2 2.5148727683486766e-01 9.2344161079664877e-01 2.9503074966288794e+00 3.7250222340294767e+00 0 0 0
50 1 2 2.5850722953348243e-01 2.4699781474282720e+01 8.6266559625285275e+00 7.0091249670411067e+00 0 0 0
51 1 2 2.5387825766419742e-01 4.3834546446512439e+00 8.7450735286186934e+00 9.6711530919135402e+00 0 0 0
52 1 2 2.3739854596336257e-01 7.6131646094510268e+00 3.9347189054424438e+00 1.1931881101941690e+00 0 0 0
53 1 2 2.3992175110000388e-01 2.1697753315347331e+01 8.6175680842071323e+00 2.7663169810742105e-01 0 0 0
54 1 2 2.4816837502095079e-01 3.6961422721003681e+00 3.7627364859818764e+00 1.0003496132881278e+01 0 0 0
55 1 2 2.6926760656221960e-01 1.1084393351141625e+01 2.9728425611319693e+00 7.4564037226729312e+00 0 0 0
56 1 2 2.5097365017702783e-01 2.1563865324658740e+00 8.5109018756112764e+00 3.6171051142104691e+00 0 0 0
57 1 2 2.2919785116853444e-01 1.5116451791642920e+01 3.7987710029104531e+00 3.6341967152254435e+00 0 0 0
58 1 2 2.2862638162656132e-01 1.1141867990537168e+01 7.5373923289557236e+00 7.3254399525936513e+00 0 0 0
59 1 2 2.6631692123057310e-01 1.7883859755433477e+01 8.0741400965445038e+00 9.7055351072899754e+00 0 0 0
60 1 2 2.5708060122402426e-01 2.1298384795650264e+01 3.4253112983654028e+00 9.6299836122121496e-01 0 0 0
61 1 2 2.5223235887893386e-01 8.6586529154672309e+00 9.3679271682691923e+00 9.8658193529845994e-01 0 0 0
62 1 2 2.5385611888463394e-01 1.7373226259495240e+01 3.0802508875706334e+00 1.0018905365231273e+01 0 0 0
63 1 2 2.3915052344895035e-01 2.2302963263205811e+01 4.2908353577155314e+00 7.9793273189218308e+00 0 0 0
64 1 2 2.4211528887455858e-01 1.5061856447958785e+01 9.2744768812302851e+00 3.4018893338648315e+00 0 0 0
65 1 2 2.3895786057228693e-01 3.5589652591116461e-03 4.1287790121828980e+00 4.4129537931346068e+00 0 0 0
66 1 2 2.4412293958739154e-01 2.5148579903540558e+01 7.2020125935704957e+00 6.0298627256533610e+00 0 0 0
67 1 2 2.3397995956893786e-01 4.9183326463631394e+00 7.0759112140857905e+00 9.9799728323012840e+00 0 0 -1
68 1 2 2.2456121964397061e-01 6.7684124673841346e+00 5.2213423728368253e+00 3.4406688439765709e-01 0 0 1
69 1 2 2.3853465820883457e-01 2.2309962321597805e+01 1.0058926412440638e+01 -4.4180430744765964e-01 0 0 1
70 1 2 2.5113843190206964e-01 2.9381842508647305e+00 2.5894425893914357e+00 1.0937218044181149e+01 0 0 -1
71 1 2 2.3515247085136823e-01 1.0637976965004572e+01 1.5907712911431524e+00 6.5094881187767450e+00 0 0 0
72 1 2 2.5662395769277641e-01 2.7208081736148357e+00 9.9790603394976554e+00 4.4118461808657079e+00 0 0 0
73 1 2 2.4540249325991206e-01 1.4459629480989351e+01 5.1235216606764951e+00 4.2836339452743033e+00 0 0 0
74 1 2 2.4975051445161489e-01 1.1687338044403003e+01 5.9477531687094887e+00 7.0380589996975544e+00 0 0 0
75 1 2 2.3036382021561169e-01 1.8429840555960034e+01 6.4288702960091513e+00 9.8076776185947416e+00 0 0 -1
76 1 2 2.3447481262766073e-01 2.0758767818257731e+01 5.0849055339859941e+00 5.7271703126318352e-01 0 0 1
77 1 2 2.4066287081044191e-01 9.3191324328544045e+00 1.1019426800565038e+01 8.2141516538909332e-01 0 0 1
78 1 2 2.4463944489818434e-01 1.7006063879637544e+01 1.4957028876666922e+00 1.0943060446820613e+01 0 0 -1
79 1 2 2.2663251581990856e-01 2.0742204064513292e+01 3.4056355549965631e+00 8.1287486556918935e+00 0 0 0
80 1 2 2.2959544003240848e-01 1.5884070908436726e+01 1.0715942284574396e+01 3.8663893746951130e+00 0 0 0
81 1 2 2.4228701254145962e-01 2.4180153877563882e+01 2.4587444392890805e+00 1.5270945252538755e+00 0 0 0
82 1 2 2.2167518941538336e-01 1.7553126007123512e+00 9.0879117697983816e+00 8.3468330443783980e+00 0 0 0
83 1 2 2.3846637607818147e-01 8.3191234467605426e+00 9.0302848251958601e+00 8.5020616636242146e+00 0 0 0
84 1 2 2.3545789396163258e-01 4.3701335736238409e+00 2.3881272437722507e+00 2.3806892820587722e+00 0 0 0
85 1 2 2.2259717226124137e-01 2.5389521004411733e+01 8.3644256761701836e+00 1.8212249183087872e+00 -1 0 0
86 1 2 2.3431043554238654e-01 4.9988698094102257e-01 3.3827700685765754e+00 7.5410527881677130e+00 1 0 0
87 1 2 2.2622704974508828e-01 7.6043811152949701e+00 4.0912806078902353e+00 8.3784810696294016e+00 0 0 0
88 1 2 2.2329793328592037e-01 5.5592282727397100e+00 7.6434700822465702e+00 2.1079271214535082e+00 0 0 0
89 1 2 2.3697304200681171e-01 1.1231401904127910e+01 3.0611776384526381e+00 2.8621158852251760e+00 0 0 0
90 1 2 2.3372329728552307e-01 1.4873615474925803e+01 8.7198110894384513e+00 7.8120805810199307e+00 0 0 0
91 1 2 2.0664940483575728e-01 2.1779878719352617e+01 9.1928878909116083e+00 9.2538111335508724e+00 0 0 0
92 1 2 2.2249669146998477e-01 1.7711407209864266e+01 2.5162622805220094e+00 2.0487427472791175e+00 0 0 0
93 1 2 2.3385898690750720e-01 1.2626280848582045e+01 8.5792236039434258e+00 1.8014906965442958e+00 0 0 0
94 1 2 2.3689174894384651e-01 1.4002747438177988e+01 3.0849831716540312e+00 8.3447267031563932e+00 0 0 0
95 1 2 2.4820388426721018e-01 2.3422014622176796e+01 1.6782079357276016e+00 1.0870479127641490e+01 0 0 0
96 1 2 2.4140839566636854e-01 1.8758508004088537e+01 7.8586373843766717e+00 2.5125027527554624e+00 0 0 0
97 1 2 2.3346633353041579e-01 2.5644267505507507e+01 1.5624269075766171e+00 1.3674275703515781e+00 -1 0 0
98 1 2 2.5210376518207406e-01 2.2567453823645478e-01 9.9133049452684325e+00 8.3973209349707716e+00 1 0 0
99 1 2 2.5949515053162903e-01 7.1133185614603098e+00 1.0276186734156546e+01 8.3227512874407878e+00 0 0 0
100 1 2 2.5229274259483286e-01 6.0252182943788135e+00 1.9818741331947713e+00 2.4926275803455717e+00 0 0 0
101 1 2 2.5253408095410129e-01 2.4051177529112280e+01 7.3352837738697501e+00 2.0533600529521703e+00 0 0 0
102 1 2 2.7065448936185965e-01 1.9221361831011379e+00 4.3689599022778216e+00 7.5370371943276773e+00 0 0 0
103 1 2 2.3107833273785292e-01 9.3582590507708918e+00 4.5665511240436309e+00 8.6000320024768406e+00 0 0 0
104 1 2 2.6852844846015728e-01 4.0250361422288981e+00 7.1382560378777224e+00 2.3388073481664513e+00 0 0 0
105 1 2 2.6274116813048859e-01 1.2405084708962791e+01 1.8062850751240140e+00 2.8191379944339512e+00 0 0 0
106 1 2 2.3648877230036355e-01 1.3361119663314758e+01 9.5124915166545652e+00 8.1573394850376939e+00 0 0 0
107 1 2 2.5778311873204030e-01 2.0415438363273537e+01 9.9527728248593821e+00 9.0695455454671166e+00 0 0 0
108 1 2 2.5557181389880029e-01 1.9269243282925014e+01 1.7737148646135033e+00 1.8476325851653304e+00 0 0 0
109 1 2 2.5958740985940254e-01 1.1248784170623910e+01 7.5356778857274715e+00 1.8200935866116206e+00 0 0 0
110 1 2 2.7161555638333396e-01 1.5416799959821525e+01 4.0537791027098091e+00 8.2687453173300867e+00 0 0 0
111 1 2 2.6265122226480897e-01 2.4104546203714371e+01 3.0238135126737973e+00 9.9688555867479867e+00 0 0 0
112 1 2 2.6123675814939107e-01 1.7006130819156436e+01 7.2343419061774323e+00 2.4203171261496328e+00 0 0 0
113 1 2 2.6855998629293787e-01 1.1462444389259712e+00 3.0219643531560538e+00 8.1418569214455561e-01 0 0 0
114 1 2 2.4308728490155287e-01 2.4656207407620453e+01 8.5287819977435291e+00 9.7143583129877555e+00 0 0 0
115 1 2 2.2555901872515899e-01 4.8419667979464469e+00 9.3428420721540455e+00 6.6846827502358179e+00 0 0 0
116 1 2 2.5177501447162592e-01 7.5836951878491510e+00 3.6828968164860152e+00 3.9133883597799306e+00 0 0 0
117 1 2 2.8035503066472506e-01 2.1814973146169585e+01 9.0386101913038353e+00 3.6057773341628963e+00 0 0 0
118 1 2 2.2953041893467388e-01 4.4504649135679824e+00 3.1104112259784289e+00 7.1362224276837551e+00 0 0 0
119 1 2 2.4097328115819394e-01 1.0804926088819176e+01 2.3837985711552445e+00 1.0639677579704166e+01 0 0 0
120 1 2 2.5265062436346680e-01 2.0417680742014412e+00 8.6758903737943651e+00 7.7518224875637043e-01 0 0 0
121 1 2 2.5862150599388134e-01 1.4577201722832390e+01 3.3524289625169934e+00 6.4802563935652024e-01 0 0 0
122 1 2 2.2795777781714816e-01 1.1756285498053362e+01 8.4847694623883658e+00 1.0079650237248162e+01 0 0 0
123 1 2 2.5449143800650537e-01 1.8864358971104529e+01 8.9729398754132941e+00 6.4587197386420971e+00 0 0 0
124 1 2 2.4755812153864495e-01 2.1103913707332879e+01 2.7797996899840105e+00 3.7145367983001734e+00 0 0 0
125 1 2 2.5968932054400706e-01 9.2887553616590512e+00 8.5367239290279926e+00 4.0116628037767885e+00 0 0 0
126 1 2 2.6510106868712052e-01 1.7726223558494155e+01 2.6503682115718892e+00 7.1099043174910470e+00 0 0 0
127 1 2 2.3723372869732368e-01 2.4402792340616269e+01 2.3910549337486340e+00 6.9684442798696837e+00 0 0 0
128 1 2 2.4085764449065647e-01 1.5389401144087589e+01 8.5270762865674801e+00 6.1649619379759191e-01 0 0 0
129 1 2 2.5156842015549424e-01 1.1138886773174264e+00 4.6905077088972380e+00 1.6781400764996257e-01 0 0 0
130 1 2 2.6156134494113187e-01 2.5145277771562128e+01 6.9016123081595104e+00 1.0254306698665612e+01 0 0 0
131 1 2 2.3648466372160326e-01 5.2937239101428668e+00 7.8864850456417814e+00 5.9098917371170625e+00 0 0 0
132 1 2 2.5629938340470598e-01 6.7598681558530229e+00 5.0345653735254663e+00 4.7723620792585546e+00 0 0 0
133 1 2 2.5634874887603964e-01 2.2638442601322819e+01 1.0604133404503884e+01 3.6963646462706405e+00 0 0 0
134 1 2 2.2596774097715225e-01 4.3305020473770162e+00 1.3609315204954253e+00 6.9585451066545723e+00 0 0 0
135 1 2 2.4033263722036577e-01 9.7290038013591928e+00 1.1550391882769160e+00 1.0628755164444808e+01 0 0 0
136 1 2 2.4143598391362600e-01 2.8645970345512564e+00 1.0280820140789400e+01 2.8669882772630473e-01 0 0 0
137 1 2 2.5487805962578247e-01 1.3658873251761039e+01 4.8643941063150322e+00 1.5096412162242445e-01 0 0 0
138 1 2 2.2520832425746812e-01 1.2438052328111466e+01 7.2426545525462869e+00 1.1020161723238822e+01 0 0 0
139 1 2 2.5916817061336933e-01 1.9746061569206503e+01 7.5820101768988684e+00 5.9955777572729936e+00 0 0 0
140 1 2 2.2886209827115830e-01 2.0709974150777800e+01 4.0243959368975588e+00 4.8252444056504213e+00 0 0 0
141 1 2 2.2867782887522395e-01 9.9555200637253041e+00 9.9868171528119269e+00 4.7344548508379143e+00 0 0 0
142 1 2 2.4126426381116783e-01 1.7354633590959484e+01 9.8428464387960801e-01 6.7717702446125383e+00 0 0 0
143 1 2 2.3011420198326185e-01 2.3773898746357698e+01 8.2102706676070536e-01 6.6830619365123374e+00 0 0 0
144 1 2 2.5089736388371958e-01 1.6083442597578429e+01 9.8409300882336943e+00 -2.7704685576605437e-01 0 0 0
145 1 3 -2.5534084351618419e-01 8.6997846047822769e-01 4.5066089210378628e+00 2.3826822115260793e+00 0 0 0
146 1 3 -2.8164336607625740e-01 2.4813621304819328e+01 7.0404522761343920e+00 8.2240985670329341e+00 0 0 0
147 1 3 -2.8407488957004079e-01 4.7057617133889167e+00 7.6478050666591386e+00 7.9355645955882199e+00 0 0 0
148 1 3 -2.6516507029535580e-01 6.9676307840681515e+00 5.3070501430762480e+00 2.5877577075831741e+00 0 0 0
149 1 3 -2.3109016281116773e-01 2.1988627741977478e+01 1.0138221688634317e+01 1.7277442783134784e+00 0 0 0
150 1 3 -2.6068573538613116e-01 4.0022293141997416e+00 2.0464086775193415e+00 8.9855889321204305e+00 0 0 0
151 1 3 -2.5464666112223278e-01 1.0501305515894089e+01 1.3412164131432505e+00 8.6661972337186128e+00 0 0 0
152 1 3 -3.0608685330480956e-01 2.2198735791493815e+00 9.9607859119501718e+00 2.3109430288968631e+00 0 0 0
153 1 3 -3.0359341075130547e-01 1.4487031033324822e+01 4.8681311730147616e+00 2.0765286104184644e+00 0 0 0
154 1 3 -3.1194723448908157e-01 1.1753297637050153e+01 6.6704159858033814e+00 9.0909247633270116e+00 0 0 0
155 1 3 -2.4695636655067080e-01 1.8525410079706788e+01 7.2874113469030632e+00 7.8207463154137837e+00 0 0 0
156 1 3 -2.2300587061833840e-01 2.0966623049795924e+01 4.5418493041781964e+00 2.7350277018526730e+00 0 0 0
157 1 3 -2.5513310931171473e-01 9.1177171990879451e+00 1.0243342705609868e+01 2.7988022822218923e+00 0 0 0
158 1 3 -2.8092818222404026e-01 1.7508061077621555e+01 1.3863505280581709e+00 8.8186358851777999e+00 0 0 0
159 1 3 -2.8987300912010738e-01 2.2311965757667942e+01 2.4163574892632007e+00 7.0812661680470779e+00 0 0 0
160 1 3 -2.6260855649900777e-01 1.5606560188375481e+01 1.0294127515344911e+01 1.7404178662214096e+00 0 0 0
161 1 3 -2.5618972015178071e-01 2.5396646582927279e+01 2.9557511078247352e+00 3.0843467258776558e+00 -1 0 0
162 1 3 -2.5577723742913883e-01 2.1114856116326680e-01 8.3247742671255960e+00 7.0838466647616265e+00 1 0 0
163 1 3 -2.0436820763120922e-01 6.4968020140885354e+00 8.6002151387147947e+00 9.5529846615333192e+00 0 0 0
164 1 3 -2.7038504990705292e-01 5.6084215653797358e+00 3.6158806436052502e+00 1.2235085097874703e+00 0 0 0
165 1 3 -2.4867536327947745e-01 2.3790538914959509e+01 8.8045751943686223e+00 5.2298285946294820e-01 0 0 0
166 1 3 -2.3771631422151718e-01 1.7211889001910643e+00 3.2422240528967086e+00 9.3088908378115018e+00 0 0 0
167 1 3 -2.7858037305473876e-01 9.0605465882405731e+00 2.9638725664747287e+00 7.2762926638344823e+00 0 0 0
168 1 3 -2.8704906936948149e-01 4.2413225052536410e+00 8.7999030303984025e+00 3.4648795065501661e+00 0 0 0
169 1 3 -2.4707509870141631e-01 1.2979416724080508e+01 3.6515072628484253e+00 3.7684782075099603e+00 0 0 0
170 1 3 -2.2836226989370337e-01 1.3203223313820073e+01 7.5848646726550513e+00 7.1773255670652478e+00 0 0 0
171 1 3 -2.2151159097300444e-01 1.9990760820734888e+01 7.9999850458552357e+00 9.8077536565744197e+00 0 0 0
172 1 3 -2.8560492902154544e-01 1.9351808160363134e+01 3.5259234813834777e+00 1.0717672939707743e+00 0 0 0
173 1 3 -2.6955887712314591e-01 1.0817113577181198e+01 9.4334669848519788e+00 1.0414014039519799e+00 0 0 0
174 1 3 -2.6676088156190592e-01 1.5483207371390506e+01 2.6365367589589082e+00 9.7866474139392938e+00 0 0 0
175 1 3 -2.4348601024663735e-01 2.2130742754321741e+01 2.8723435215088169e+00 9.5990435506972851e+00 0 0 0
176 1 3 -2.4911539888799131e-01 1.7183174093122592e+01 9.1380431865265965e+00 3.4167834311000105e+00 0 0 0
177 1 3 -2.6028885804218382e-01 2.5828995384331989e+01 3.4943840634701600e+00 5.8904813082923546e-01 -1 0 0
178 1 3 -2.4511048333134863e-01 2.2587168173632544e-01 8.1634273577727168e+00 9.6174462068249706e+00 1 0 0
179 1 3 -2.7773130579666905e-01 6.8894708569075345e+00 8.7632165276409992e+00 6.9888019767826846e+00 0 0 0
180 1 3 -2.5946895012873650e-01 5.5590103684097567e+00 3.5802965084884439e+00 3.8198991527448181e+00 0 0 0
181 1 3 -2.6157354963107449e-01 2.3876273277184339e+01 9.0423962205927264e+00 3.1218969218087063e+00 0 0 0
182 1 3 -2.6831486595216397e-01 2.4749057836837709e+00 2.5186942519159379e+00 6.9514495736481194e+00 0 0 0
183 1 3 -2.5576540398755693e-01 8.9085315682892272e+00 3.0209199764879475e+00 9.8632879326474043e+00 0 0 0
184 1 3 -2.5942446815834364e-01 4.1167525528285553e+00 8.6708137133389904e+00 8.6281398546574550e-01 0 0 0
185 1 3 -2.1689128746864161e-01 1.2570621231145267e+01 3.2886496976859898e+00 1.2170415063601672e+00 0 0 0
186 1 3 -2.7500414088290076e-01 1.3810672809854109e+01 8.2274608213001663e+00 9.6277991820668518e+00 0 0 0
187 1 3 -2.3838851600273986e-01 2.0679295381706957e+01 8.7577700318508338e+00 7.4737973232757842e+00 0 0 0
188 1 3 -2.2690007061727868e-01 1.9038160482057169e+01 3.0682399037995878e+00 3.6339753471977669e+00 0 0 0
189 1 3 -2.5536791906748385e-01 1.1221013911081524e+01 8.8420998143563665e+00 3.5428908284210934e+00 0 0 0
190 1 3 -2.4381098349772684e-01 1.5696262766490729e+01 2.2494133788454040e+00 7.2310469045126915e+00 0 0 0
191 1 3 -2.6182209934213629e-01 2.4021860628112051e+01 1.3914828494557949e+00 8.6911890832607419e+00 0 0 0
192 1 3 -2.4735842117582962e-01 1.7434704251345156e+01 8.6572154757985889e+00 9.5679269253980670e-01 0 0 0
193 1 3 5.0720357581324016e-01 5.6387244101896139e-01 5.9732775329415455e+00 2.5299908071422541e+00 0 0 0
194 1 3 5.1241776479231571e-01 2.5043152095182243e+01 5.5202840564790225e+00 8.2209535963133984e+00 0 0 0
195 1 3 5.0888402885328632e-01 4.8948592961591313e+00 6.1423482637050588e+00 7.7208443379125562e+00 0 0 0
196 1 3 4.6985999313264026e-01 8.2928092801481395e+00 6.0411846162203044e+00 2.5892699930057246e+00 0 0 0
197 1 3 4.9210528900364620e-01 2.2065870433836139e+01 3.6893268270861257e-01 1.5843365644898340e+00 0 0 0
198 1 3 5.1065826167247719e-01 3.9315321710784552e+00 5.7911356649358892e-01 9.3466222326672828e+00 0 1 0
199 1 3 4.7750185560420844e-01 1.0231762073695648e+01 1.1134311528336481e+01 8.5932615865497901e+00 0 0 0
200 1 3 4.9689060682159691e-01 2.1830460039629127e+00 1.9446984207885409e-01 2.4653210100002450e+00 0 0 0
201 1 3 5.1776037563090505e-01 1.4308335981187092e+01 6.3787647999719725e+00 2.0163095501393928e+00 0 0 0
202 1 3 5.3078897749238230e-01 1.2074781519589875e+01 5.2592340957969688e+00 9.5258310431284894e+00 0 0 0
203 1 3 4.8489734689091613e-01 1.8552808324429545e+01 5.8067084381063241e+00 7.4746959396674004e+00 0 0 0
204 1 3 4.9778845539953243e-01 2.0773665381875318e+01 6.0185281585586319e+00 3.0859452789398372e+00 0 0 0
205 1 3 4.8745695338130163e-01 9.0165944572735253e+00 4.5494241672563779e-01 3.0933472581351076e+00 0 0 0
206 1 3 5.1009919097711054e-01 1.7664650404313740e+01 1.1156522783189832e+01 8.9119829213372483e+00 0 0 0
207 1 3 4.8820145212874488e-01 2.1244942167407327e+01 1.4715825580156361e+00 6.5755243773730889e+00 0 1 0
208 1 3 5.1123710827768165e-01 1.5927245124200434e+01 4.6540891803886492e-01 1.4539501865070124e+00 0 0 0
209 1 3 4.6386299835085859e-01 2.4200613410385792e+01 3.8195050153375325e+00 3.4934928661705564e+00 -1 0 0
210 1 3 5.1565525794013656e-01 1.3564492041317502e+00 7.5231185402603895e+00 6.4732234951386598e+00 1 0 0
211 1 3 4.7066157952122561e-01 7.4095236465724463e+00 7.6823449403141417e+00 1.0322193786372967e+01 0 0 -1
212 1 3 5.1713206970695735e-01 4.3558812546056140e+00 4.3244453512150436e+00 7.2850514122577215e-01 0 0 1
213 1 3 4.6913042503974994e-01 2.4789334558328406e+01 9.6942192242902223e+00 -2.1531428720432877e-01 0 0 1
214 1 3 4.7435103448272298e-01 5.9145253514383844e-01 2.4666469228731032e+00 9.9266299810125851e+00 0 0 -1
215 1 3 5.0061695166823206e-01 7.9452831974351845e+00 2.0941530436682525e+00 6.7110247188122960e+00 0 0 0
216 1 3 4.7749507519341777e-01 5.3295038424036996e+00 9.8061740048167181e+00 3.8356649753969325e+00 0 0 0
217 1 3 4.8579560432894475e-01 1.2011566117122603e+01 4.6062125629634725e+00 4.4392826264492058e+00 0 0 0
218 1 3 4.7851824990726066e-01 1.4269156703113193e+01 6.5470111227847498e+00 6.7999520757148568e+00 0 0 0
219 1 3 4.6745263044710528e-01 2.0977374582538445e+01 6.9691406933908464e+00 1.0428869823313063e+01 0 0 -1
220 1 3 4.8923244721374437e-01 1.8283892226131861e+01 4.4133685679421939e+00 4.5721741836581375e-01 0 0 1
221 1 3 4.8458111817109650e-01 1.1798712570441625e+01 1.0525566266852657e+01 6.0332460766199492e-01 0 0 1
222 1 3 4.6213639729342759e-01 1.4433592014729271e+01 1.6853250551249062e+00 1.0354690353037643e+01 0 0 -1
223 1 3 4.7193296385042494e-01 2.0936752891527433e+01 2.0324457012673554e+00 1.0143864363776053e+01 0 0 0
224 1 3 4.8448543838015407e-01 1.8305699830171477e+01 1.0113532794413869e+01 3.8157916958265528e+00 0 0 0
225 1 3 5.1890787095659097e-01 2.4870745598264538e+01 4.6091328683345552e+00 1.7455351854278689e-01 0 0 0
226 1 3 4.8572843694546541e-01 1.2323536413461336e+00 7.0971789014282134e+00 9.9991144746385316e+00 0 0 0
227 1 3 5.2325511268394509e-01 7.7557800492669910e+00 7.5911484917821044e+00 6.5061178277559613e+00 0 0 0
228 1 3 5.0435036963273794e-01 4.2953303873397459e+00 4.4397667460241577e+00 4.0797216981176456e+00 0 0 0
229 1 3 4.4540041656289570e-01 2.4957860295216037e+01 1.0006183057735099e+01 3.6203371977764993e+00 -1 0 0
230 1 3 5.2188062418431325e-01 1.7812580216362532e+00 1.1961696581111760e+00 6.5485057892583241e+00 1 0 0
231 1 3 4.6077708633257058e-01 7.5665946757650477e+00 2.5518932544666408e+00 1.0399281065713575e+01 0 0 0
232 1 3 4.5107525245984198e-01 5.1931786128204731e+00 9.5403728270234360e+00 2.0842489128577579e-01 0 0 0
233 1 3 4.5707082981663527e-01 1.1314819768766858e+01 4.0326887407976351e+00 7.6027312650502532e-01 0 0 0
234 1 3 4.7365865537488661e-01 1.4959308303968758e+01 7.3659004928437390e+00 1.0082205352198010e+01 0 0 0
235 1 3 4.4750082492664794e-01 2.1865037771971913e+01 7.9935918774016272e+00 6.9123626073289657e+00 0 0 0
236 1 3 4.7839526441750024e-01 1.7937538314694162e+01 4.0057039174043272e+00 4.1529023982389344e+00 0 0 0
237 1 3 4.4013732627166885e-01 1.2330528335474368e+01 9.7109303664804827e+00 4.1777800974339767e+00 0 0 0
238 1 3 4.9736520853832528e-01 1.4822171286365375e+01 1.1223561033124847e+00 6.6855434784136563e+00 0 0 0
239 1 3 5.4737378450194218e-01 2.4023558741991600e+01 1.1174360470146462e+01 8.9373482938034421e+00 0 -1 0
240 1 3 4.7471057272222300e-01 1.8646444633540142e+01 9.3649186790162702e+00 3.1984841661642305e-01 0 0 0
241 1 4 -3.9514517245070618e-01 2.6189328111961764e+01 6.3350707699279747e+00 3.3871603339716563e+00 -1 0 0
242 1 4 -4.0975898603435706e-01 2.4737072425455054e+01 4.9393847888379270e+00 9.3566198220993950e+00 0 0 0
243 1 4 -4.2162691871432445e-01 5.8312695254856237e+00 5.6791017362543394e+00 6.9519579191698986e+00 0 0 0
244 1 4 -3.4263428712059629e-01 9.3389475575709664e+00 5.2721193439023075e+00 2.8320255595399946e+00 0 0 0
245 1 4 -3.8612764490404011e-01 2.2358892620492156e+01 8.2094260844529976e-01 4.0098958092657555e-01 0 0 0
246 1 4 -4.0775136023334363e-01 4.8218079901326414e+00 1.1004378741011914e+01 8.7735753150420432e+00 0 0 0
247 1 4 -4.0672449939951721e-01 1.0376755608412788e+01 1.0428204187602033e+01 9.6737284085864719e+00 0 0 0
248 1 4 -4.0974117681934197e-01 1.9790512158691946e+00 9.8625568389186791e-01 1.4515507743204510e+00 0 0 0
249 1 4 -4.9417962664083037e-01 1.3699076714421270e+01 6.9676603657529910e+00 1.0550217430613222e+00 0 0 0
250 1 4 -4.8631714621537253e-01 1.1641925075647857e+01 4.2466385303563481e+00 8.8273072918120707e+00 0 0 0
251 1 4 -3.9859254365642022e-01 1.7733528601035712e+01 4.9678948534113667e+00 8.0593840426975305e+00 0 0 0
252 1 4 -3.6916435831527722e-01 1.9979692317339396e+01 6.3474281695631687e+00 4.0514951082163977e+00 0 0 0
253 1 4 -3.7908927869357356e-01 8.1036534968555411e+00 1.2302126186386924e+00 2.5495431703711633e+00 0 0 0
254 1 4 -4.2736671404790982e-01 1.8361704740552948e+01 1.0447916430278729e+01 8.1207668359266112e+00 0 0 0
255 1 4 -3.5847246279525763e-01 2.1530130884664906e+01 4.0111548972592725e-01 5.8540415157242975e+00 0 1 0
256 1 4 -4.1827417779516279e-01 1.6993294592689359e+01 6.2658331607513729e-01 7.5523399691353466e-01 0 0 0
257 1 4 -4.2188378490037970e-01 1.3387667753205408e+00 6.8817460284988501e+00 1.9719253145583324e+00 0 0 0
258 1 4 -4.1134423492170596e-01 2.5325531829344261e+01 4.7990461763894334e+00 7.1997604148819203e+00 0 0 0
259 1 4 -4.2643371332520902e-01 4.0550989885951507e+00 5.2920007971334249e+00 8.1973908177500885e+00 0 0 0
260 1 4 -3.9970010513520210e-01 8.3779661838558592e+00 7.2873521494156233e+00 2.3101931312025248e+00 0 0 0
261 1 4 -4.4319495169055090e-01 2.1826287319071010e+01 1.1225681125416327e+00 2.6017712158591149e+00 0 0 0
262 1 4 -3.7841076315269256e-01 3.3252341252100206e+00 1.1504758162751978e+01 1.0381244407520281e+01 0 0 0
263 1 4 -4.0887441893136306e-01 1.0183774711892374e+01 1.0539806365220898e+01 7.4394847282750245e+00 0 0 0
264 1 4 -3.7138105064670696e-01 2.2871924786549358e+00 7.3401511883155390e-01 3.6257114681245586e+00 0 0 0
265 1 4 -4.4458708874930009e-01 1.4810332262330444e+01 7.0911062253046033e+00 2.9989749188329684e+00 0 0 0
266 1 4 -4.2555234818083088e-01 1.2561041059256675e+01 5.0224140781579214e+00 1.0713698641668101e+01 0 0 0
267 1 4 -3.7475255995950896e-01 1.9345401685463713e+01 5.3941128720604468e+00 6.5348622971846968e+00 0 0 0
268 1 4 -4.1187623672309637e-01 2.1433183564318899e+01 6.9386262514406232e+00 2.4766012000355153e+00 0 0 0
269 1 4 -3.8693945548543124e-01 9.9436520433910509e+00 9.7232987596503673e-01 3.8288673636344965e+00 0 0 0
270 1 4 -3.5362806563883237e-01 1.6910931918615034e+01 1.0546222924088056e+01 9.7912774356973991e+00 0 0 0
271 1 4 -4.0461439057981302e-01 2.0013421702550080e+01 1.7501208064513476e+00 6.7384252557451276e+00 0 1 0
272 1 4 -4.0779502429953257e-01 1.5185114992436917e+01 1.4507387783523265e+00 1.8658861053751976e+00 0 0 0
273 1 4 -3.8922513552810334e-01 2.3360479221310278e+01 4.2360599970364801e+00 2.6093612589582418e+00 0 0 0
274 1 4 -3.6776297110615830e-01 1.2163700728814433e+00 6.2265186107147246e+00 6.3767507724688821e+00 0 0 0
275 1 4 -3.8375648262749118e-01 7.1085499703975632e+00 6.4119090496600473e+00 1.0320777881730214e+01 0 0 -1
276 1 4 -4.5128289318627895e-01 3.4272720644831551e+00 3.6614469945626227e+00 1.2314241344263221e-01 0 0 1
277 1 4 -3.7672219905506693e-01 2.5874097443052062e+01 9.1372823440451132e+00 -6.9055599745247875e-01 -1 0 1
278 1 4 -3.7001546086754739e-01 -2.4941335094189832e-02 1.5050224967487926e+00 9.2973306352292795e+00 1 0 -1
279 1 4 -3.9795477828797632e-01 7.4899246315647092e+00 2.3328798604380747e+00 5.5145839639168530e+00 0 0 0