ITEM: TIMESTEP
0
ITEM: NUMBER OF ATOMS
576
ITEM: BOX BOUNDS xy xz yz pp pp pp
-3.8734541101000000e+00 1.7704000473000001e+01 0.0000000000000000e+00
0.0000000000000000e+00 2.5111999511699999e+01 -3.8734541101000000e+00
0.0000000000000000e+00 1.2813326682700000e+01 0.0000000000000000e+00
ITEM: ATOMS id type xs ys zs
1 1 0.223161 0.315107 0.873623
2 1 0.776839 0.684893 0.126378
3 1 0.0268387 0.565107 0.626377
4 1 0.473161 0.934893 0.373622
5 1 0.223161 0.815107 0.873622
6 1 0.776839 0.184893 0.126378
7 1 0.0268389 0.065107 0.626378
8 1 0.473161 0.434893 0.373622
9 1 0.723161 0.315107 0.873623
10 1 0.276839 0.684893 0.126378
11 1 0.526839 0.565107 0.626377
12 1 0.973161 0.934893 0.373622
13 1 0.723161 0.815107 0.873622
14 1 0.276839 0.184893 0.126378
15 1 0.526839 0.0651069 0.626378
16 1 0.973161 0.434893 0.373622
17 1 0.15516 0.316434 0.679178
18 1 0.844839 0.683566 0.320821
19 1 0.0948396 0.566434 0.820821
20 1 0.40516 0.933566 0.179179
21 1 0.15516 0.816434 0.679178
22 1 0.844839 0.183566 0.320821
23 1 0.0948395 0.0664339 0.820822
24 1 0.40516 0.433566 0.179179
25 1 0.65516 0.316434 0.679178
26 1 0.344839 0.683566 0.320821
27 1 0.59484 0.566434 0.820821
28 1 0.905161 0.933566 0.179179
29 1 0.655161 0.816434 0.679179
30 1 0.344839 0.183566 0.320821
31 1 0.594839 0.0664339 0.820821
32 1 0.905161 0.433566 0.179179
33 1 0.277257 0.253789 0.693097
34 1 0.722743 0.746212 0.306903
35 1 0.972743 0.503788 0.806903
36 1 0.527257 0.996212 0.193097
37 1 0.277258 0.753788 0.693097
38 1 0.722743 0.246212 0.306903
39 1 0.972743 0.00378848 0.806903
40 1 0.527257 0.496212 0.193097
41 1 0.777257 0.253788 0.693097
42 1 0.222743 0.746212 0.306903
43 1 0.472743 0.503788 0.806903
44 1 0.027257 0.996212 0.193097
45 1 0.777257 0.753788 0.693097
46 1 0.222743 0.246212 0.306903
47 1 0.472743 0.00378844 0.806903
48 1 0.0272571 0.496212 0.193097
49 1 0.295859 0.276915 0.886845
50 1 0.704141 0.723085 0.113155
51 1 0.95414 0.526915 0.613155
52 1 0.54586 0.973085 0.386845
53 1 0.295859 0.776915 0.886845
54 1 0.704141 0.223085 0.113155
55 1 0.954141 0.0269152 0.613155
56 1 0.545859 0.473085 0.386845
57 1 0.79586 0.276915 0.886844
58 1 0.204141 0.723085 0.113155
59 1 0.45414 0.526915 0.613155
60 1 0.0458596 0.973085 0.386845
61 1 0.795859 0.776915 0.886845
62 1 0.204141 0.223085 0.113155
63 1 0.454141 0.0269153 0.613155
64 1 0.0458595 0.473085 0.386845
65 1 0.337097 0.308286 0.722187
66 1 0.662903 0.691714 0.277813
67 1 0.912903 0.558286 0.777812
68 1 0.587097 0.941714 0.222188
69 1 0.337097 0.808286 0.722187
70 1 0.662903 0.191714 0.277813
71 1 0.912903 0.058286 0.777813
72 1 0.587097 0.441714 0.222187
73 1 0.837097 0.308286 0.722188
74 1 0.162903 0.691714 0.277813
75 1 0.412903 0.558286 0.777812
76 1 0.0870972 0.941714 0.222188
77 1 0.837097 0.808286 0.722187
78 1 0.162903 0.191714 0.277813
79 1 0.412903 0.0582859 0.777813
80 1 0.0870971 0.441714 0.222187
81 1 0.216511 0.369473 0.710887
82 1 0.783488 0.630528 0.289114
83 1 0.0334887 0.619473 0.789114
84 1 0.466511 0.880528 0.210886
85 1 0.216512 0.869472 0.710886
86 1 0.783488 0.130528 0.289114
87 1 0.0334884 0.119472 0.789114
88 1 0.466512 0.380528 0.210886
89 1 0.716511 0.369473 0.710887
90 1 0.283488 0.630528 0.289114
91 1 0.533488 0.619472 0.789114
92 1 0.966512 0.880528 0.210886
93 1 0.716512 0.869472 0.710886
94 1 0.283488 0.130528 0.289114
95 1 0.533488 0.119472 0.789114
96 1 0.966512 0.380528 0.210886
97 2 0.208215 0.320441 0.948907
98 2 0.791786 0.679559 0.0510931
99 2 0.0417854 0.570441 0.551093
100 2 0.458215 0.929559 0.448907
101 2 0.208214 0.820441 0.948907
102 2 0.791786 0.179559 0.0510931
103 2 0.0417856 0.0704413 0.551093
104 2 0.458214 0.429559 0.448907
105 2 0.708215 0.320441 0.948907
106 2 0.291786 0.679559 0.0510932
107 2 0.541785 0.570441 0.551093
108 2 0.958215 0.929559 0.448907
109 2 0.708214 0.820441 0.948907
110 2 0.291786 0.179559 0.0510932
111 2 0.541786 0.0704412 0.551093
112 2 0.958214 0.429559 0.448907
113 2 0.0937626 0.328724 0.625922
114 2 0.906237 0.671276 0.374078
115 2 0.156237 0.578724 0.874078
116 2 0.343763 0.921276 0.125922
117 2 0.0937626 0.828724 0.625922
118 2 0.906237 0.171276 0.374078
119 2 0.156237 0.078724 0.874078
120 2 0.343763 0.421276 0.125922
121 2 0.593763 0.328724 0.625922
122 2 0.406237 0.671276 0.374078
123 2 0.656237 0.578724 0.874078
124 2 0.843763 0.921276 0.125922
125 2 0.593763 0.828724 0.625922
126 2 0.406237 0.171276 0.374078
127 2 0.656237 0.078724 0.874078
128 2 0.843763 0.421276 0.125922
129 2 0.296487 0.224164 0.641032
130 2 0.703513 0.775836 0.358968
131 2 0.953513 0.474164 0.858968
132 2 0.546487 0.0258362 0.141032
133 2 0.296487 0.724164 0.641032
134 2 0.703513 0.275836 0.358968
135 2 0.953513 0.974164 0.858968
136 2 0.546487 0.525836 0.141032
137 2 0.796487 0.224164 0.641032
138 2 0.203513 0.775836 0.358968
139 2 0.453513 0.474164 0.858968
140 2 0.0464873 0.0258362 0.141032
141 2 0.796487 0.724164 0.641032
142 2 0.203513 0.275836 0.358968
143 2 0.453513 0.974164 0.858968
144 2 0.0464874 0.525836 0.141032
145 2 0.32163 0.262375 0.969165
146 2 0.67837 0.737625 0.030835
147 2 0.92837 0.512375 0.530835
148 2 0.57163 0.987625 0.469165
149 2 0.32163 0.762375 0.969166
150 2 0.67837 0.237625 0.030835
151 2 0.92837 0.0123752 0.530835
152 2 0.57163 0.487625 0.469165
153 2 0.82163 0.262375 0.969164
154 2 0.17837 0.737625 0.0308348
155 2 0.42837 0.512375 0.530835
156 2 0.0716298 0.987625 0.469165
157 2 0.82163 0.762375 0.969165
158 2 0.17837 0.237625 0.0308349
159 2 0.42837 0.0123752 0.530835
160 2 0.07163 0.487625 0.469165
161 2 0.388878 0.306887 0.688506
162 2 0.611122 0.693113 0.311494
163 2 0.861122 0.556887 0.811494
164 2 0.638878 0.943113 0.188506
165 2 0.388877 0.806887 0.688507
166 2 0.611122 0.193113 0.311494
167 2 0.861122 0.0568867 0.811494
168 2 0.638878 0.443113 0.188506
169 2 0.888878 0.306887 0.688506
170 2 0.111122 0.693113 0.311494
171 2 0.361122 0.556887 0.811494
172 2 0.138878 0.943113 0.188506
173 2 0.888878 0.806887 0.688506
174 2 0.111122 0.193113 0.311494
175 2 0.361122 0.0568866 0.811494
176 2 0.138878 0.443113 0.188506
177 2 0.186199 0.408278 0.677708
178 2 0.813801 0.591721 0.322292
179 2 0.063801 0.658279 0.822292
180 2 0.436199 0.841721 0.177708
181 2 0.186199 0.908279 0.677708
182 2 0.813801 0.0917214 0.322292
183 2 0.0638009 0.158278 0.822292
184 2 0.436199 0.341721 0.177708
185 2 0.686199 0.408279 0.677708
186 2 0.313801 0.591721 0.322292
187 2 0.563801 0.658279 0.822292
188 2 0.936199 0.841721 0.177708
189 2 0.686199 0.908279 0.677708
190 2 0.313801 0.0917214 0.322292
191 2 0.563801 0.158279 0.822292
192 2 0.936199 0.341721 0.177708
193 3 0.150554 0.29367 0.791284
194 3 0.849447 0.706329 0.208717
195 3 0.0994466 0.543671 0.708717
196 3 0.400553 0.956329 0.291283
197 3 0.150553 0.79367 0.791284
198 3 0.849447 0.206329 0.208717
199 3 0.0994466 0.0436706 0.708717
200 3 0.400553 0.456329 0.291283
201 3 0.650554 0.293671 0.791283
202 3 0.349447 0.706329 0.208717
203 3 0.599447 0.543671 0.708717
204 3 0.900553 0.956329 0.291283
205 3 0.650553 0.793671 0.791283
206 3 0.349447 0.206329 0.208717
207 3 0.599447 0.0436706 0.708717
208 3 0.900553 0.456329 0.291283
209 3 0.0661511 0.301947 0.807413
210 3 0.933849 0.698053 0.192587
211 3 0.183849 0.551947 0.692587
212 3 0.316151 0.948053 0.307413
213 3 0.0661508 0.801947 0.807413
214 3 0.933849 0.198053 0.192587
215 3 0.183849 0.0519469 0.692587
216 3 0.316151 0.448053 0.307413
217 3 0.566151 0.301947 0.807413
218 3 0.433849 0.698053 0.192587
219 3 0.683849 0.551947 0.692587
220 3 0.816151 0.948053 0.307413
221 3 0.566151 0.801947 0.807413
222 3 0.433849 0.198053 0.192587
223 3 0.683849 0.0519469 0.692587
224 3 0.816151 0.448053 0.307413
225 3 0.196353 0.278733 0.627954
226 3 0.803648 0.721267 0.372046
227 3 0.0536474 0.528733 0.872046
228 3 0.446353 0.971267 0.127954
229 3 0.196352 0.778733 0.627953
230 3 0.803648 0.221267 0.372046
231 3 0.0536476 0.0287329 0.872046
232 3 0.446352 0.471267 0.127954
233 3 0.696353 0.278733 0.627954
234 3 0.303648 0.721267 0.372046
235 3 0.553647 0.528733 0.872046
236 3 0.946353 0.971267 0.127954
237 3 0.696352 0.778733 0.627954
238 3 0.303648 0.221267 0.372046
239 3 0.553648 0.0287329 0.872046
240 3 0.946352 0.471267 0.127954
241 3 0.14895 0.251654 0.522144
242 3 0.85105 0.748346 0.477856
243 3 0.10105 0.501654 0.977856
244 3 0.39895 0.998346 0.0221439
245 3 0.14895 0.751654 0.522144
246 3 0.85105 0.248346 0.477856
247 3 0.10105 0.00165429 0.977856
248 3 0.39895 0.498346 0.0221439
249 3 0.64895 0.251654 0.522144
250 3 0.35105 0.748346 0.477856
251 3 0.60105 0.501654 0.977856
252 3 0.89895 0.998346 0.0221438
253 3 0.64895 0.751654 0.522144
254 3 0.35105 0.248346 0.477856
255 3 0.60105 0.00165424 0.977856
256 3 0.89895 0.498346 0.0221438
257 3 0.28706 0.230254 0.798215
258 3 0.71294 0.769746 0.201785
259 3 0.96294 0.480254 0.701785
260 3 0.53706 0.0197462 0.298215
261 3 0.287061 0.730253 0.798215
262 3 0.71294 0.269746 0.201785
263 3 0.96294 0.980254 0.701785
264 3 0.53706 0.519746 0.298215
265 3 0.78706 0.230254 0.798215
266 3 0.21294 0.769746 0.201785
267 3 0.46294 0.480254 0.701785
268 3 0.0370601 0.0197462 0.298215
269 3 0.78706 0.730254 0.798215
270 3 0.21294 0.269746 0.201785
271 3 0.46294 0.980254 0.701785
272 3 0.0370603 0.519746 0.298215
273 3 0.221307 0.190753 0.806395
274 3 0.778693 0.809248 0.193606
275 3 0.0286928 0.440752 0.693606
276 3 0.471307 0.0592475 0.306394
277 3 0.221307 0.690752 0.806394
278 3 0.778693 0.309248 0.193606
279 3 0.0286928 0.940752 0.693606
280 3 0.471307 0.559248 0.306394
281 3 0.721307 0.190753 0.806395
282 3 0.278693 0.809248 0.193606
283 3 0.528693 0.440752 0.693606
284 3 0.971307 0.0592475 0.306394
285 3 0.721307 0.690752 0.806394
286 3 0.278693 0.309248 0.193606
287 3 0.528693 0.940752 0.693606
288 3 0.971307 0.559248 0.306394
289 3 0.370262 0.304554 0.834299
290 3 0.629738 0.695446 0.165701
291 3 0.879738 0.554554 0.665701
292 3 0.620262 0.945446 0.334299
293 3 0.370263 0.804554 0.834299
294 3 0.629738 0.195446 0.165701
295 3 0.879738 0.0545541 0.665701
296 3 0.620262 0.445446 0.334299
297 3 0.870262 0.304554 0.834299
298 3 0.129738 0.695446 0.165701
299 3 0.379738 0.554554 0.665701
300 3 0.120262 0.945446 0.334299
301 3 0.870262 0.804554 0.834299
302 3 0.129738 0.195446 0.165701
303 3 0.379738 0.054554 0.665701
304 3 0.120262 0.445446 0.334299
305 3 0.404602 0.35318 0.903746
306 3 0.595398 0.64682 0.0962539
307 3 0.845398 0.60318 0.596254
308 3 0.654602 0.89682 0.403746
309 3 0.404602 0.85318 0.903746
310 3 0.595398 0.14682 0.0962539
311 3 0.845398 0.10318 0.596254
312 3 0.654602 0.39682 0.403746
313 3 0.904602 0.35318 0.903746
314 3 0.0953982 0.64682 0.096254
315 3 0.345398 0.60318 0.596254
316 3 0.154602 0.89682 0.403746
317 3 0.904602 0.85318 0.903746
318 3 0.0953982 0.14682 0.096254
319 3 0.345398 0.10318 0.596254
320 3 0.154602 0.39682 0.403746
321 3 0.280228 0.356071 0.661021
322 3 0.719773 0.643929 0.338978
323 3 0.969772 0.606071 0.838979
324 3 0.530228 0.893928 0.161021
325 3 0.280228 0.856071 0.661023
326 3 0.719773 0.143929 0.338978
327 3 0.969772 0.106071 0.838978
328 3 0.530228 0.393929 0.161022
329 3 0.780228 0.356072 0.66102
330 3 0.219773 0.643929 0.338978
331 3 0.469773 0.606072 0.838979
332 3 0.0302272 0.893928 0.161021
333 3 0.780227 0.856071 0.661022
334 3 0.219773 0.143929 0.338978
335 3 0.469773 0.106071 0.838978
336 3 0.0302273 0.393929 0.161022
337 3 0.327319 0.404848 0.639096
338 3 0.672681 0.595152 0.360904
339 3 0.922681 0.654849 0.860904
340 3 0.577319 0.845151 0.139096
341 3 0.327319 0.904848 0.639096
342 3 0.672681 0.0951515 0.360904
343 3 0.922681 0.154848 0.860904
344 3 0.577319 0.345152 0.139096
345 3 0.827319 0.404849 0.639096
346 3 0.172681 0.595152 0.360904
347 3 0.422681 0.654849 0.860904
348 3 0.0773186 0.845151 0.139096
349 3 0.827319 0.904848 0.639096
350 3 0.172681 0.0951515 0.360904
351 3 0.422681 0.154848 0.860904
352 3 0.0773186 0.345152 0.139096
353 3 0.242408 0.371754 0.832932
354 3 0.757592 0.628246 0.167068
355 3 0.00759214 0.621754 0.667068
356 3 0.492408 0.878246 0.332932
357 3 0.242408 0.871754 0.832932
358 3 0.757592 0.128246 0.167068
359 3 0.0075923 0.121754 0.667068
360 3 0.492408 0.378246 0.332932
361 3 0.742408 0.371754 0.832932
362 3 0.257592 0.628246 0.167068
363 3 0.507592 0.621754 0.667068
364 3 0.992408 0.878246 0.332932
365 3 0.742408 0.871754 0.832932
366 3 0.257592 0.128246 0.167068
367 3 0.507592 0.121754 0.667068
368 3 0.992408 0.378246 0.332932
369 3 0.208469 0.42134 0.87949
370 3 0.791531 0.57866 0.12051
371 3 0.0415314 0.67134 0.62051
372 3 0.458469 0.82866 0.37949
373 3 0.208469 0.92134 0.87949
374 3 0.791531 0.0786602 0.12051
375 3 0.0415314 0.17134 0.62051
376 3 0.458469 0.32866 0.37949
377 3 0.708469 0.42134 0.87949
378 3 0.291531 0.57866 0.12051
379 3 0.541531 0.67134 0.62051
380 3 0.958469 0.82866 0.37949
381 3 0.708469 0.92134 0.87949
382 3 0.291531 0.0786602 0.12051
383 3 0.541531 0.17134 0.62051
384 3 0.958469 0.32866 0.37949
385 4 0.00517465 0.309135 0.728002
386 4 0.994825 0.690865 0.271998
387 4 0.244825 0.559135 0.771998
388 4 0.255175 0.940865 0.228002
389 4 0.00517472 0.809135 0.728002
390 4 0.994825 0.190865 0.271998
391 4 0.244825 0.0591354 0.771998
392 4 0.255175 0.440865 0.228002
393 4 0.505175 0.309135 0.728002
394 4 0.494825 0.690865 0.271998
395 4 0.744825 0.559135 0.771998
396 4 0.755175 0.940865 0.228002
397 4 0.505175 0.809135 0.728002
398 4 0.494825 0.190865 0.271998
399 4 0.744825 0.0591354 0.771998
400 4 0.755175 0.440865 0.228002
401 4 0.0595574 0.299546 0.900261
402 4 0.940443 0.700454 0.0997391
403 4 0.190442 0.549546 0.599739
404 4 0.309558 0.950454 0.400261
405 4 0.0595574 0.799546 0.900261
406 4 0.940443 0.200454 0.0997391
407 4 0.190443 0.049546 0.599739
408 4 0.309557 0.450454 0.400261
409 4 0.559558 0.299546 0.900261
410 4 0.440443 0.700454 0.0997391
411 4 0.690442 0.549546 0.599739
412 4 0.809557 0.950454 0.400261
413 4 0.559557 0.799546 0.900261
414 4 0.440443 0.200454 0.0997391
415 4 0.690443 0.049546 0.599739
416 4 0.809557 0.450454 0.400261
417 4 0.1793 0.212247 0.487494
418 4 0.8207 0.787753 0.512506
419 4 0.0706995 0.462247 0.0125055
420 4 0.4293 0.0377528 0.987494
421 4 0.1793 0.712247 0.487495
422 4 0.8207 0.287753 0.512506
423 4 0.0706996 0.962247 0.0125055
424 4 0.4293 0.537753 0.987495
425 4 0.6793 0.212247 0.487494
426 4 0.3207 0.787753 0.512506
427 4 0.5707 0.462247 0.0125056
428 4 0.9293 0.0377528 0.987494
429 4 0.6793 0.712247 0.487494
430 4 0.3207 0.287753 0.512506
431 4 0.5707 0.962247 0.0125055
432 4 0.9293 0.537753 0.987494
433 4 0.0850023 0.272864 0.467882
434 4 0.914998 0.727136 0.532118
435 4 0.164998 0.522864 0.0321184
436 4 0.335002 0.977136 0.967882
437 4 0.0850024 0.772864 0.467882
438 4 0.914998 0.227136 0.532118
439 4 0.164998 0.0228636 0.0321184
440 4 0.335002 0.477136 0.967882
441 4 0.585002 0.272864 0.467882
442 4 0.414998 0.727136 0.532118
443 4 0.664998 0.522864 0.0321184
444 4 0.835002 0.977136 0.967882
445 4 0.585002 0.772864 0.467882
446 4 0.414998 0.227136 0.532118
447 4 0.664998 0.0228636 0.0321184
448 4 0.835002 0.477136 0.967882
449 4 0.189591 0.160208 0.727591
450 4 0.810409 0.839793 0.272409
451 4 0.0604089 0.410207 0.772409
452 4 0.439591 0.0897926 0.227591
453 4 0.189591 0.660207 0.727591
454 4 0.810409 0.339793 0.272409
455 4 0.060409 0.910207 0.772409
456 4 0.439591 0.589793 0.227591
457 4 0.689591 0.160208 0.727591
458 4 0.310409 0.839793 0.272409
459 4 0.560409 0.410207 0.772409
460 4 0.939591 0.0897926 0.227591
461 4 0.689591 0.660207 0.727591
462 4 0.310409 0.339793 0.272409
463 4 0.560409 0.910207 0.772409
464 4 0.939591 0.589793 0.227591
465 4 0.201054 0.187077 0.892005
466 4 0.798946 0.812923 0.107995
467 4 0.048946 0.437077 0.607995
468 4 0.451054 0.0629226 0.392005
469 4 0.201054 0.687077 0.892005
470 4 0.798946 0.312923 0.107995
471 4 0.0489461 0.937077 0.607995
472 4 0.451054 0.562923 0.392005
473 4 0.701054 0.187077 0.892005
474 4 0.298946 0.812923 0.107995
475 4 0.548946 0.437077 0.607995
476 4 0.951054 0.0629226 0.392005
477 4 0.701054 0.687077 0.892005
478 4 0.298946 0.312923 0.107995
479 4 0.548946 0.937077 0.607995
480 4 0.951054 0.562923 0.392005
481 4 0.433139 0.391547 0.86129
482 4 0.566861 0.608453 0.13871
483 4 0.816861 0.641547 0.63871
484 4 0.683139 0.858453 0.36129
485 4 0.433139 0.891547 0.86129
486 4 0.566861 0.108453 0.13871
487 4 0.816861 0.141547 0.63871
488 4 0.683139 0.358453 0.36129
489 4 0.933139 0.391547 0.86129
490 4 0.0668611 0.608453 0.13871
491 4 0.316861 0.641547 0.63871
492 4 0.183139 0.858453 0.36129
493 4 0.933139 0.891547 0.86129
494 4 0.0668611 0.108453 0.13871
495 4 0.316861 0.141547 0.63871
496 4 0.183139 0.358453 0.36129
497 4 0.400663 0.357999 0.99921
498 4 0.599336 0.642001 0.000789432
499 4 0.849336 0.607999 0.500789
500 4 0.650664 0.892001 0.499211
501 4 0.400663 0.857999 0.99921
502 4 0.599336 0.142001 0.000789412
503 4 0.849336 0.107999 0.50079
504 4 0.650664 0.392001 0.499211
505 4 0.900664 0.357999 0.999211
506 4 0.0993365 0.642001 0.000789488
507 4 0.349336 0.607999 0.500789
508 4 0.150664 0.892001 0.499211
509 4 0.900664 0.857999 0.99921
510 4 0.0993365 0.142001 0.000789547
511 4 0.349336 0.107999 0.500789
512 4 0.150664 0.392001 0.499211
513 4 0.301835 0.452539 0.642369
514 4 0.698165 0.547461 0.357631
515 4 0.948165 0.702539 0.857631
516 4 0.551835 0.797461 0.142369
517 4 0.301835 0.952539 0.642369
518 4 0.698165 0.0474609 0.357631
519 4 0.948165 0.202539 0.857631
520 4 0.551835 0.297461 0.142369
521 4 0.801835 0.452539 0.642369
522 4 0.198165 0.547461 0.357631
523 4 0.448165 0.702539 0.857631
524 4 0.0518348 0.797461 0.142369
525 4 0.801835 0.952539 0.642369
526 4 0.198165 0.0474609 0.357631
527 4 0.448165 0.202539 0.857631
528 4 0.0518347 0.297461 0.142369
529 4 0.38948 0.39684 0.61037
530 4 0.61052 0.60316 0.389631
531 4 0.86052 0.64684 0.88963
532 4 0.63948 0.85316 0.11037
533 4 0.38948 0.89684 0.610369
534 4 0.61052 0.10316 0.389631
535 4 0.86052 0.14684 0.88963
536 4 0.63948 0.35316 0.11037
537 4 0.88948 0.39684 0.61037
538 4 0.11052 0.60316 0.389631
539 4 0.36052 0.64684 0.88963
540 4 0.13948 0.85316 0.11037
541 4 0.88948 0.89684 0.610369
542 4 0.11052 0.10316 0.389631
543 4 0.36052 0.14684 0.889631
544 4 0.13948 0.35316 0.110369
545 4 0.19585 0.46568 0.828563
546 4 0.80415 0.53432 0.171437
547 4 0.0541502 0.71568 0.671437
548 4 0.44585 0.78432 0.328563
549 4 0.19585 0.96568 0.828563
550 4 0.80415 0.0343198 0.171437
551 4 0.0541502 0.21568 0.671437
552 4 0.44585 0.28432 0.328563
553 4 0.69585 0.46568 0.828563
554 4 0.30415 0.53432 0.171437
555 4 0.55415 0.71568 0.671437
556 4 0.94585 0.78432 0.328563
557 4 0.69585 0.96568 0.828563
558 4 0.30415 0.0343198 0.171437
559 4 0.55415 0.21568 0.671437
560 4 0.94585 0.28432 0.328563
561 4 0.195436 0.417447 0.968925
562 4 0.804564 0.582553 0.031075
563 4 0.0545639 0.667447 0.531075
564 4 0.445436 0.832553 0.468925
565 4 0.195436 0.917447 0.968925
566 4 0.804564 0.082553 0.031075
567 4 0.0545639 0.167447 0.531075
568 4 0.445436 0.332553 0.468925
569 4 0.695436 0.417447 0.968925
570 4 0.304564 0.582553 0.031075
571 4 0.554564 0.667447 0.531075
572 4 0.945436 0.832553 0.468925
573 4 0.695436 0.917447 0.968925
574 4 0.304564 0.082553 0.031075
575 4 0.554564 0.167447 0.531075
576 4 0.945436 0.332553 0.468925
ITEM: TIMESTEP
1000
ITEM: NUMBER OF ATOMS
576
ITEM: BOX BOUNDS xy xz yz pp pp pp
-5.6756842519712078e+00 1.9205840667056599e+01 -3.9142102089664142e-02
-2.5165729925808265e+00 2.7745992850522846e+01 -4.1347019558248643e+00
-2.1166812714105454e-01 1.3024994809841054e+01 1.1742034624200463e-01
ITEM: ATOMS id type xs ys zs
1 1 0.250006 0.314881 0.872302
3 1 0.00297683 0.561208 0.619078
4 1 0.505923 0.926637 0.370697
5 1 0.242905 0.811128 0.878126
7 1 0.000258274 0.0588355 0.635505
8 1 0.49552 0.443948 0.387097
10 1 0.238273 0.688337 0.122151
11 1 0.502386 0.560598 0.636712
14 1 0.253093 0.191924 0.130483
15 1 0.507918 0.0640872 0.618523
17 1 0.182068 0.318818 0.676501
19 1 0.0754267 0.555967 0.809399
20 1 0.42447 0.930537 0.177296
21 1 0.176121 0.814786 0.689658
23 1 0.0751403 0.0682581 0.816825
24 1 0.424508 0.43449 0.195533
26 1 0.314436 0.679249 0.316466
30 1 0.315413 0.192598 0.323501
33 1 0.290341 0.275527 0.685616
36 1 0.535422 0.968878 0.170142
37 1 0.285048 0.780405 0.685493
40 1 0.52624 0.478741 0.191112
42 1 0.216389 0.722436 0.334827
43 1 0.462916 0.528678 0.827186
44 1 0.0355329 0.979354 0.187918
46 1 0.212321 0.238131 0.310144
47 1 0.461308 0.0264761 0.8044
48 1 0.0223306 0.474759 0.161927
49 1 0.313768 0.290082 0.866245
53 1 0.30711 0.786336 0.868646
58 1 0.185945 0.718069 0.147601
59 1 0.440731 0.534714 0.644776
60 1 0.0566416 0.967182 0.367237
62 1 0.193858 0.222888 0.131162
63 1 0.445019 0.0356495 0.618723
64 1 0.0538153 0.463192 0.350326
65 1 0.335918 0.324414 0.716759
69 1 0.325836 0.828985 0.714037
74 1 0.168772 0.679308 0.302979
75 1 0.421424 0.576993 0.798172
76 1 0.0864431 0.933278 0.224154
78 1 0.165213 0.19257 0.284406
79 1 0.415589 0.0739483 0.76886
80 1 0.0714515 0.427415 0.192875
81 1 0.227382 0.363112 0.713192
83 1 0.031419 0.603432 0.778362
84 1 0.466287 0.885433 0.20196
85 1 0.215751 0.861402 0.726595
87 1 0.0281207 0.110395 0.781491
88 1 0.475968 0.393227 0.242578
90 1 0.264731 0.636704 0.277106
91 1 0.526172 0.611468 0.785171
94 1 0.265378 0.146535 0.284723
95 1 0.522365 0.111441 0.771374
97 2 0.239036 0.310171 0.945296
99 2 0.00455093 0.556966 0.542182
100 2 0.503553 0.928115 0.447091
101 2 0.239445 0.805219 0.954744
103 2 0.00531897 0.0487777 0.563966
104 2 0.490388 0.448235 0.464077
106 2 0.235422 0.693201 0.0446104
107 2 0.508316 0.558683 0.558266
110 2 0.264116 0.194082 0.0592371
111 2 0.522746 0.0621858 0.550998
113 2 0.135504 0.328353 0.615734
115 2 0.125585 0.564456 0.862482
116 2 0.373566 0.924246 0.126929
117 2 0.124442 0.823535 0.640316
119 2 0.125475 0.0797318 0.859359
120 2 0.374411 0.420652 0.14307
122 2 0.363885 0.664858 0.360849
126 2 0.361854 0.181666 0.385576
129 2 0.314724 0.252781 0.645369
133 2 0.309881 0.76317 0.639581
138 2 0.195016 0.744358 0.380192
139 2 0.43696 0.5081 0.875179
140 2 0.0629762 0.00125087 0.149019
142 2 0.189721 0.260228 0.352802
143 2 0.435496 0.00605573 0.845972
144 2 0.045906 0.493979 0.115353
145 2 0.3414 0.276686 0.93851
149 2 0.338445 0.773078 0.939374
154 2 0.165567 0.735477 0.0787498
155 2 0.417095 0.524863 0.568585
156 2 0.0739069 0.982016 0.441575
158 2 0.17025 0.233703 0.0533005
159 2 0.425565 0.021407 0.547083
160 2 0.0832583 0.480669 0.415034
161 2 0.376913 0.321969 0.680457
165 2 0.365673 0.830164 0.673379
170 2 0.133984 0.673378 0.348803
171 2 0.387127 0.58479 0.844738
172 2 0.12961 0.930799 0.190495
174 2 0.128355 0.194181 0.32872
175 2 0.374437 0.074046 0.809339
176 2 0.107364 0.42903 0.14495
177 2 0.193651 0.391597 0.68247
179 2 0.0668987 0.628334 0.811805
180 2 0.432018 0.858375 0.17621
181 2 0.180543 0.889555 0.703841
183 2 0.0621419 0.138577 0.80237
184 2 0.447288 0.362144 0.219435
186 2 0.294108 0.604255 0.295889
190 2 0.300994 0.119201 0.322601
193 3 0.171034 0.300136 0.769222
195 3 0.0810146 0.53879 0.713346
196 3 0.423681 0.948345 0.277297
197 3 0.164244 0.794047 0.782923
199 3 0.0779261 0.0437342 0.723483
200 3 0.411745 0.454704 0.287049
202 3 0.322459 0.701254 0.227008
206 3 0.328183 0.206794 0.226595
209 3 0.103643 0.319655 0.788341
211 3 0.141134 0.561555 0.678939
212 3 0.361228 0.92993 0.30921
213 3 0.102558 0.816221 0.810808
215 3 0.140555 0.063498 0.692751
216 3 0.353543 0.429253 0.31456
218 3 0.382287 0.681298 0.191019
222 3 0.395529 0.186003 0.210271
225 3 0.220164 0.285948 0.616136
227 3 0.0380148 0.52737 0.878061
228 3 0.461605 0.963006 0.112344
229 3 0.212991 0.788654 0.618523
231 3 0.0443973 0.0355963 0.896226
232 3 0.456127 0.463869 0.122679
234 3 0.288648 0.70828 0.397346
235 3 0.535676 0.536562 0.890281
238 3 0.278314 0.223663 0.381481
239 3 0.532488 0.0370554 0.875225
241 3 0.172142 0.243431 0.57971
243 3 0.0843513 0.48445 0.917765
244 3 0.420928 0.0095332 0.0890685
245 3 0.168825 0.744628 0.580097
247 3 0.0921952 0.992484 0.929175
248 3 0.406421 0.504699 0.0751518
250 3 0.335207 0.75124 0.431177
254 3 0.32952 0.262475 0.430528
257 3 0.300363 0.250361 0.787267
261 3 0.294524 0.752429 0.787407
264 3 0.531028 0.506624 0.288296
266 3 0.208685 0.749709 0.233841
267 3 0.450398 0.500058 0.725623
268 3 0.0369653 0.00222649 0.285268
270 3 0.210625 0.261818 0.206123
271 3 0.456417 0.00302778 0.70134
272 3 0.0350707 0.49665 0.266467
273 3 0.248426 0.215108 0.805753
275 3 0.00749621 0.460641 0.683324
276 3 0.508239 0.0298302 0.303578
277 3 0.246163 0.714257 0.807609
279 3 0.0179885 0.958261 0.717865
280 3 0.475856 0.541918 0.299227
282 3 0.255738 0.788973 0.218636
283 3 0.502944 0.463308 0.712842
286 3 0.26742 0.29404 0.190259
287 3 0.506678 0.966522 0.68735
289 3 0.368308 0.320465 0.827143
293 3 0.362809 0.82264 0.823906
298 3 0.127237 0.685889 0.192622
299 3 0.382706 0.57256 0.692047
300 3 0.119893 0.938957 0.336088
302 3 0.129965 0.192997 0.176444
303 3 0.38269 0.0696301 0.658557
304 3 0.111757 0.431761 0.301078
305 3 0.394937 0.362028 0.902901
309 3 0.388191 0.861913 0.897561
314 3 0.0982876 0.642967 0.129229
315 3 0.358973 0.611761 0.612161
316 3 0.145854 0.894646 0.400417
318 3 0.0956369 0.152341 0.106999
319 3 0.360823 0.113574 0.592311
320 3 0.144856 0.392005 0.375965
321 3 0.2889 0.36321 0.669202
324 3 0.524593 0.881221 0.152634
325 3 0.274796 0.867819 0.679446
328 3 0.531821 0.389464 0.191372
330 3 0.209556 0.633446 0.330349
331 3 0.470017 0.617862 0.833364
332 3 0.0458691 0.891632 0.182535
334 3 0.21111 0.148371 0.336738
335 3 0.462783 0.116466 0.812637
336 3 0.0254382 0.385754 0.157202
337 3 0.327672 0.411266 0.686898
341 3 0.310931 0.915803 0.71194
346 3 0.16843 0.58704 0.307968
347 3 0.430197 0.666335 0.805973
348 3 0.0822481 0.843198 0.203308
350 3 0.165536 0.104312 0.30708
351 3 0.42674 0.165261 0.794193
352 3 0.0740621 0.341641 0.189224
353 3 0.244049 0.363864 0.833294
355 3 0.00716639 0.606665 0.660859
356 3 0.49513 0.879751 0.33425
357 3 0.240009 0.859148 0.847713
359 3 0.00158712 0.10791 0.656862
360 3 0.498588 0.396139 0.36218
362 3 0.239183 0.639091 0.153733
363 3 0.507707 0.608791 0.664904
366 3 0.250374 0.142362 0.167777
367 3 0.506266 0.111645 0.64947
369 3 0.19803 0.395006 0.87883
371 3 0.0529017 0.639292 0.615302
372 3 0.440118 0.850815 0.363767
373 3 0.192877 0.887311 0.895455
375 3 0.0456341 0.136158 0.599291
376 3 0.46336 0.361299 0.420477
378 3 0.285945 0.606922 0.107232
382 3 0.303629 0.11127 0.132127
385 4 0.0506729 0.328958 0.713583
387 4 0.181513 0.589623 0.737825
388 4 0.307821 0.914098 0.241239
389 4 0.051823 0.83133 0.740021
391 4 0.19274 0.077647 0.759843
392 4 0.305805 0.409725 0.24681
394 4 0.438034 0.666721 0.251066
398 4 0.437008 0.165215 0.285265
401 4 0.106237 0.324868 0.881115
403 4 0.150061 0.54851 0.594528
404 4 0.35721 0.941326 0.396341
405 4 0.104472 0.820138 0.903069
407 4 0.133707 0.069391 0.598166
408 4 0.355445 0.428797 0.409518
410 4 0.373757 0.68696 0.0936473
414 4 0.408169 0.191738 0.125743
417 4 0.200904 0.205092 0.581644
419 4 0.0573889 0.446496 0.916533
420 4 0.449276 0.0457763 0.0810888
421 4 0.199875 0.709569 0.561324
423 4 0.0630507 0.957099 0.943225
424 4 0.433503 0.541945 0.0639708
426 4 0.309919 0.787792 0.450649
430 4 0.301352 0.298308 0.450331
433 4 0.10843 0.250195 0.556598
435 4 0.147006 0.491614 0.969192
436 4 0.35547 0.0065752 0.076297
437 4 0.105181 0.748715 0.553036
439 4 0.157249 0.997559 0.959747
440 4 0.341805 0.500001 0.0521013
442 4 0.397814 0.749182 0.437779
446 4 0.392595 0.254507 0.465754
449 4 0.247423 0.173955 0.778384
451 4 0.0148129 0.423515 0.729144
452 4 0.51682 0.0692231 0.269906
453 4 0.238998 0.677318 0.761101
455 4 0.0181454 0.919775 0.759362
456 4 0.465236 0.577973 0.248777
458 4 0.26398 0.8244 0.272722
459 4 0.501469 0.42474 0.750827
462 4 0.284392 0.330271 0.238646
463 4 0.505063 0.927938 0.724378
465 4 0.215202 0.225982 0.866922
467 4 0.0199285 0.465268 0.598189
468 4 0.491578 0.026265 0.3837
469 4 0.221413 0.717656 0.882547
471 4 0.0486086 0.963389 0.650149
472 4 0.44781 0.535939 0.369929
474 4 0.278345 0.785911 0.142863
475 4 0.526573 0.466205 0.638173
478 4 0.291217 0.285059 0.117622
479 4 0.528176 0.969365 0.608013
481 4 0.438323 0.387174 0.882864
485 4 0.41942 0.89495 0.871636
490 4 0.0458815 0.625231 0.145295
491 4 0.311384 0.637638 0.620968
492 4 0.199551 0.875019 0.392684
494 4 0.0485316 0.129718 0.129826
495 4 0.312391 0.137325 0.608546
496 4 0.195173 0.369816 0.366776
497 4 0.382553 0.36378 0.987616
501 4 0.384741 0.856379 0.990215
506 4 0.106518 0.637442 0.0403069
507 4 0.375861 0.610366 0.529444
508 4 0.125374 0.889323 0.479025
510 4 0.111121 0.146107 0.0245122
511 4 0.379879 0.116148 0.512199
512 4 0.12761 0.390211 0.458821
513 4 0.30812 0.439764 0.739285
516 4 0.539342 0.807172 0.238376
517 4 0.284573 0.940317 0.763635
522 4 0.189835 0.560047 0.252239
523 4 0.449973 0.691927 0.748424
524 4 0.0631638 0.814949 0.256235
526 4 0.189786 0.0734643 0.265212
527 4 0.445429 0.192215 0.736124
528 4 0.0582851 0.315709 0.250441
529 4 0.354298 0.42239 0.617618
533 4 0.341841 0.932119 0.651459
538 4 0.145087 0.573425 0.379171
539 4 0.39199 0.678075 0.857682
540 4 0.111024 0.831417 0.137957
542 4 0.127572 0.0964875 0.362744
543 4 0.391975 0.178225 0.852578
544 4 0.104815 0.330757 0.126343
545 4 0.172732 0.430753 0.833706
547 4 0.0760611 0.674253 0.663501
548 4 0.412945 0.817185 0.31009
549 4 0.168708 0.924462 0.849949
551 4 0.0820267 0.168316 0.646295
552 4 0.450169 0.321377 0.389419
554 4 0.316276 0.573339 0.157752
558 4 0.345113 0.0858479 0.198461
561 4 0.198358 0.388848 0.970421
563 4 0.0669933 0.62839 0.535233
564 4 0.429847 0.857652 0.45084
565 4 0.192872 0.877978 0.985845
567 4 0.0281175 0.133504 0.502666
568 4 0.468207 0.369506 0.512166
570 4 0.28159 0.612562 0.0155264
571 4 0.532457 0.636357 0.509763
574 4 0.305799 0.112441 0.0426117
2 1 0.738614 0.686059 0.119367
6 1 0.752322 0.190057 0.120443
9 1 0.752526 0.314435 0.871772
12 1 0.996765 0.936968 0.370188
13 1 0.74033 0.818273 0.860038
16 1 0.99422 0.433911 0.361575
18 1 0.82163 0.675354 0.311322
22 1 0.825442 0.187228 0.323595
25 1 0.684995 0.312824 0.677117
27 1 0.572357 0.567087 0.825901