LAMMPS data file via write_data, version 15 Apr 2020, timestep = 80000

576 atoms
4 atom types

7.2235881348106545e-02 1.7631764591651809e+01 xlo xhi
-4.2490622074780653e+00 2.9361061719178064e+01 ylo yhi
-2.8536142406288700e-01 1.3098688106763120e+01 zlo zhi
-7.4267662013963021e-01 -2.1885246495900339e+00 8.3475990938618461e-01 xy xz yz

Masses

1 12.0107
2 1.00794
3 14.0067
4 15.9994

Atoms # full

3 1 1 6.9577076832305643e-02 1.5257017056290429e+01 1.5408962688250117e+01 8.8242380795347408e+00 -1 0 0
48 1 1 9.9332328450473947e-02 1.6519277170062598e+01 1.0717710169378677e+01 1.0864595240207631e+00 -1 0 0
87 1 1 9.5387938905298827e-02 -5.2517875261616531e-01 4.4207826653777271e-01 9.1004896277709619e+00 0 0 0
99 1 2 1.8560513537401371e-01 1.4819274104760039e+01 1.4931649129017419e+01 7.9049448814641350e+00 -1 0 0
279 1 3 1.0236946626471732e-01 -1.5872922158171616e+00 3.0049777370477241e+01 1.1720309898801187e+01 0 0 0
355 1 3 -1.4420253840834785e-01 1.5690649811387317e+01 1.7141545125434977e+01 8.6561250103303990e+00 -1 0 0
567 1 4 -1.0210927902766430e-01 1.6015888039454044e+01 -9.5625310502089844e-01 5.7374524232071016e+00 -1 0 0
12 1 1 5.2274220107493628e-02 -1.3427026345919963e+00 2.7966910754223843e+01 4.6192357782235893e+00 1 0 0
16 1 1 5.7372628960073245e-02 -9.1541186018324716e-01 1.1157176228671927e+01 4.1269460983783732e+00 1 0 0
108 1 2 2.0845742771709005e-01 -1.1078230981503692e+00 2.8436753785113165e+01 5.5319983544091302e+00 1 0 0
112 1 2 2.0015564487091675e-01 -6.5487340041545883e-01 1.1659835754202771e+01 5.0471956258869870e+00 1 0 0
364 1 3 -1.5603956683473399e-01 -1.1913764573333545e+00 2.6384808772503920e+01 4.8517415517172919e+00 1 0 0
368 1 3 -1.2929495732601279e-01 -8.8312701909345404e-01 9.3607105067155523e+00 4.4584469601590575e+00 1 0 0
1 1 1 6.2930665073765851e-02 3.0317216814970549e+00 6.9762471846601191e+00 1.1493589913975434e+01 0 0 0
4 1 1 5.7609442338694444e-02 8.0783695276997296e+00 2.6872335748821627e+01 3.7738016546587874e+00 0 0 0
5 1 1 6.7739223884894478e-02 1.8016215628749339e+00 2.3839663912246746e+01 1.0808064886439400e+01 0 0 0
7 1 1 5.7207624055205165e-02 1.6062159638360683e+01 -1.9123282906173658e+00 8.7655419099334182e+00 -1 0 0
8 1 1 6.3536746744487185e-02 8.7459501403528925e+00 1.0594273143604740e+01 4.5590855053265482e+00 0 0 0
10 1 1 5.8952895522979130e-02 3.2431456741656386e+00 1.9444753956880543e+01 1.6530526540106887e+00 0 0 0
11 1 1 5.1436169888796776e-02 6.7323726250748699e+00 1.5032461148406650e+01 8.0595096521439729e+00 0 0 0
14 1 1 5.5417330253786257e-02 3.8580007979574540e+00 2.4309986206561724e+00 1.4684131632389492e+00 0 0 0
15 1 1 5.8701687182800583e-02 6.9885809564858796e+00 -1.4710344401367501e+00 7.9232200343354551e+00 0 0 0
17 1 1 7.8547262167450241e-02 1.0993499375675915e+00 7.9275364946154099e+00 1.0051336055667626e+01 0 0 0
19 1 1 8.0199793756675436e-02 -1.7429627898476818e-01 1.5875009204200172e+01 1.0067386602967947e+01 0 0 0
20 1 1 7.1846583456984664e-02 5.9900153116104331e+00 2.6097190151365375e+01 2.8133418618631221e+00 0 0 0
21 1 1 6.9778043108979476e-02 1.2612019868759461e-01 2.3741189912125332e+01 8.9707386768133368e+00 0 0 0
23 1 1 8.1265218395443956e-02 4.8056059294841891e-01 -8.2013546593765563e-01 9.7645416578275821e+00 0 0 0
24 1 1 9.1022819199294475e-02 6.5713613236413106e+00 1.0172211560379418e+01 3.0668748605782663e+00 0 0 0
26 1 1 8.1791599087431860e-02 5.1414900966939516e+00 1.8799652965292818e+01 3.1130172687114985e+00 0 0 0
30 1 1 5.7424335675255025e-02 5.1710542945589939e+00 1.8815737931990695e+00 3.4452172481205241e+00 0 0 0
33 1 1 8.7914123086824406e-02 2.8003119856334102e+00 7.1777959730510368e+00 8.3217487489439854e+00 0 0 0
36 1 1 9.2392743670960592e-02 7.0723356468777272e+00 2.6860374827280932e+01 7.7407404435729021e-01 0 0 0
37 1 1 7.1680440074962756e-02 2.1449190222853813e+00 2.3498037947200338e+01 7.6970106963107163e+00 0 0 0
40 1 1 7.7873180617554855e-02 8.3839994891357410e+00 1.0318585380656666e+01 1.3766325170995510e+00 0 0 0
42 1 1 8.9955415979389747e-02 3.3474135033086321e+00 1.9409345738545444e+01 4.8108998734976716e+00 0 0 0
43 1 1 8.2892673605869674e-02 6.9861532956870764e+00 1.5712828094804934e+01 1.1306289592564063e+01 0 0 0
44 1 1 7.5807098174080600e-02 1.6215821117374556e+01 2.7641018664691291e+01 1.3959654622156170e+00 -1 0 0
46 1 1 9.7512453398956936e-02 3.0089732508201683e+00 2.4613110212636791e+00 4.5677285245582979e+00 0 0 0
47 1 1 8.9477931395061147e-02 7.1554713984351057e+00 -1.1920517656142144e+00 1.1245938374113550e+01 0 0 0
49 1 1 6.4370796273871239e-02 3.9844689727757086e+00 6.4611745255564550e+00 1.0378941824348733e+01 0 0 0
53 1 1 6.7832443880199905e-02 3.1645789292109834e+00 2.3738307702014989e+01 9.9916147940989717e+00 0 0 0
58 1 1 6.2741360192802131e-02 2.1381532469846012e+00 1.9796092921805659e+01 2.7184599725668503e+00 0 0 0
59 1 1 6.3750807316154040e-02 5.9345934939241758e+00 1.4492648185220414e+01 9.2851376845474931e+00 0 0 0
60 1 1 7.8472704330321205e-02 -2.9796849875362130e-01 2.8377382559626756e+01 3.5348560470914085e+00 0 0 0
62 1 1 6.1923365264975154e-02 2.4563153248304750e+00 2.7081128711455458e+00 2.0357953543726235e+00 0 0 0
63 1 1 5.8135039922669038e-02 5.8555671289189544e+00 -1.6832814997541998e+00 8.9426664456619704e+00 0 0 0
64 1 1 6.2079371789685991e-02 1.2714722800910538e-01 1.1542384544870394e+01 3.0454801432453036e+00 0 0 0
65 1 1 9.7287379205782287e-02 3.8347918562118259e+00 8.4502434867275298e+00 8.7593098863004144e+00 0 0 0
69 1 1 9.2092693457078822e-02 2.6973754951873476e+00 2.5167998647043966e+01 8.0604378889559243e+00 0 0 0
74 1 1 9.5813399301789448e-02 2.4832471201734396e+00 1.7947734486443682e+01 4.3465991614686832e+00 0 0 0
75 1 1 9.5683149577306545e-02 5.6694859503176893e+00 1.6686389870868666e+01 1.0799254130652077e+01 0 0 0
76 1 1 7.9707580528256536e-02 -3.7367090054720936e-01 2.6396147636621933e+01 1.8070368414471996e+00 0 0 0
78 1 1 7.5553093773400193e-02 2.4018545737358856e+00 1.0293329621884260e+00 3.9256282826043964e+00 0 0 0
79 1 1 9.8267576988500138e-02 6.2011834943916684e+00 1.5117332029782915e-01 1.0647165192649773e+01 0 0 0
80 1 1 8.7524950185369016e-02 4.3473827191718939e-02 9.5412799102191137e+00 1.6366554107049334e+00 0 0 0
81 1 1 8.9695195122240320e-02 2.1088348866365498e+00 9.1313941685156763e+00 1.0512588131679600e+01 0 0 0
83 1 1 7.8291610632159808e-02 -9.4783671201565367e-01 1.7329611972791742e+01 9.8197687777849332e+00 0 0 0
84 1 1 7.9046802240654579e-02 7.0332821432861570e+00 2.4791196842241288e+01 2.9880533848092035e+00 0 0 0
85 1 1 6.9222102775212832e-02 5.2556148521240975e-01 2.5272499109654138e+01 9.3766410678326118e+00 0 0 0
88 1 1 8.7854278537451716e-02 7.2623256707428352e+00 8.7257385202647164e+00 3.6919049958027279e+00 0 0 0
90 1 1 8.2945303955369240e-02 4.2894152263170300e+00 1.7455868300651463e+01 2.6854850479137014e+00 0 0 0
91 1 1 7.4568797253464603e-02 7.1812110652956358e+00 1.7347695145121076e+01 8.8334747341551854e+00 0 0 0
94 1 1 8.3850813148707570e-02 4.6261387821735980e+00 4.8471369197028569e-01 2.8621838415975454e+00 0 0 0
95 1 1 7.7380798750600208e-02 8.0245402787554134e+00 6.7616898490258581e-01 8.9204706428608631e+00 0 0 0
97 1 2 1.9736741339837641e-01 3.2973341341143061e+00 6.4170367899628378e+00 1.2399428294969187e+01 0 0 0
100 1 2 1.9192905980419039e-01 8.6046853019524026e+00 2.7340364401340175e+01 4.5454924354202646e+00 0 0 0
101 1 2 1.8006165881696884e-01 2.0833154777662513e+00 2.3509504092443979e+01 1.1797403076420725e+01 0 0 0
103 1 2 1.9012463725493498e-01 1.5743480678667328e+01 -2.6478234703958137e+00 8.0614178029071653e+00 -1 0 0
104 1 2 1.9973652892789995e-01 9.0416683683232328e+00 1.1169160901920334e+01 5.5306113345895200e+00 0 0 0
106 1 2 2.1525260312776204e-01 2.9768138628798919e+00 1.9944307213100164e+01 6.7112015662471869e-01 0 0 0
107 1 2 2.1818731868091262e-01 6.6515798632188199e+00 1.4307829920900485e+01 7.2396939111335907e+00 0 0 0
110 1 2 2.0195843828917684e-01 3.9756512705870817e+00 2.8535690203836044e+00 4.7110049981273983e-01 0 0 0
111 1 2 1.8698712348010998e-01 6.7052382091526441e+00 -1.9656357134498248e+00 7.0132972999863386e+00 0 0 0
113 1 2 2.1002563729292015e-01 5.4623100265709823e-02 8.2965880647844621e+00 1.0067206569796564e+01 0 0 0
115 1 2 2.2934410700476648e-01 8.7806545603478292e-01 1.5892293184859714e+01 9.7820513881151037e+00 0 0 0
116 1 2 2.2079888090924754e-01 5.0314536985194662e+00 2.5878331124333407e+01 3.2553038655042408e+00 0 0 0
117 1 2 2.2442294840233962e-01 -9.5872526149558979e-01 2.3658391531696580e+01 8.9282693954197114e+00 0 0 0
119 1 2 2.2180254863680640e-01 1.4957887736863891e+00 -7.1828106947553838e-01 9.4376451078824779e+00 0 0 0
120 1 2 1.9810135958244623e-01 5.4891206283978518e+00 1.0030563086694928e+01 3.1700865150085700e+00 0 0 0
122 1 2 1.9896440394589093e-01 6.1599674049572597e+00 1.8486276422062193e+01 2.9916624047337050e+00 0 0 0
126 1 2 2.4311809173826854e-01 6.2062149834170270e+00 1.8583977413511521e+00 3.7722527378421242e+00 0 0 0
129 1 2 2.0556476896377274e-01 2.9853480107731816e+00 6.8585956068545002e+00 7.2877264736209639e+00 0 0 0
133 1 2 2.3432622257845431e-01 2.5277608948052963e+00 2.3266007248017718e+01 6.7340651238624512e+00 0 0 0
138 1 2 2.0800592043566551e-01 3.1270392185942448e+00 1.9512256986186006e+01 5.8311350699234890e+00 0 0 0
139 1 2 2.0884822423175067e-01 6.9168080900265529e+00 1.5552950921176045e+01 1.2373178840332063e+01 0 0 0
140 1 2 1.9940779997748651e-01 1.6272031060336886e+01 2.7820542060130297e+01 3.6523556252119127e-01 -1 -1 0
142 1 2 2.0235889239365351e-01 2.5734917280708944e+00 2.6625205219867256e+00 5.5967040876924381e+00 0 0 0
143 1 2 1.9600805192287890e-01 7.1704497189990981e+00 -1.2545745215649893e+00 1.2324886141266347e+01 0 1 0
144 1 2 2.0063379279408966e-01 1.6581134039488294e+01 1.0828851045881802e+01 -3.7820902513012178e-02 -1 0 0
145 1 2 2.1593918596871647e-01 4.6896688826545461e+00 5.6866780863085236e+00 1.0757304411689713e+01 0 0 0
149 1 2 2.0485905087786344e-01 3.9228622713616375e+00 2.3377921394155216e+01 1.0681921387986396e+01 0 0 0
154 1 2 2.2446129509812063e-01 1.3252917673928786e+00 2.0445775027385828e+01 2.2837767335180095e+00 0 0 0
155 1 2 2.0634962754047001e-01 5.3409689650189085e+00 1.3640404440342095e+01 8.9646978102663404e+00 0 0 0
156 1 2 2.0386336639650929e-01 3.9053079493589382e-01 2.9103745281569989e+01 4.0696951002696391e+00 0 0 0
158 1 2 2.1251516089747893e-01 1.8583375525719454e+00 3.3531699322868667e+00 1.3981497748156912e+00 0 0 0
159 1 2 1.8839555121557883e-01 5.1332519843612960e+00 -2.3436345560990373e+00 8.5612294131381432e+00 0 0 0
160 1 2 1.9931862526276817e-01 8.9624710822935083e-01 1.2256353610662313e+01 3.3698274620641162e+00 0 0 0
161 1 2 1.8058198368042222e-01 4.3403009434786091e+00 8.8612400114594223e+00 7.9071499760811141e+00 0 0 0
165 1 2 2.0975471509386714e-01 3.2281714465465914e+00 2.5617634773141639e+01 7.2049719189570682e+00 0 0 0
170 1 2 2.0017419037873102e-01 2.0215215598442962e+00 1.7475852237993248e+01 5.2564754811255696e+00 0 0 0
171 1 2 1.9786534957251514e-01 5.0815510072148387e+00 1.7098446571598025e+01 1.1669903641821222e+01 0 0 0
172 1 2 2.2147481597621668e-01 1.5505390104649938e-01 2.6003242062248766e+01 9.0671517557972403e-01 0 0 0
174 1 2 2.1720387216295095e-01 1.6030541376388592e+00 5.6359877182695861e-01 4.5076515291243480e+00 0 0 0
175 1 2 2.0157556948708111e-01 5.6090015448806625e+00 4.9550348720202653e-01 1.1486230118175762e+01 0 0 0
176 1 2 2.1593384263468068e-01 6.6078470479690454e-01 9.0200097144562772e+00 8.4247159545955808e-01 0 0 0
177 1 2 2.1416591616124400e-01 1.4943917402691254e+00 9.9592880073752550e+00 1.0889599215164580e+01 0 0 0
179 1 2 2.3733312488045510e-01 -2.4852862966089284e-01 1.8127522031449292e+01 9.5805762640534020e+00 0 0 0
180 1 2 2.1652987423684633e-01 6.4418051847412148e+00 2.3953436086353211e+01 3.3298710717592859e+00 0 0 0
181 1 2 2.2178687022529234e-01 -4.1071463669969588e-01 2.5833514492437413e+01 9.5494984285875226e+00 0 0 0
183 1 2 2.1954483122771987e-01 -1.7853526815980736e-04 1.1544560025648796e+00 8.4279380477157630e+00 0 0 0
184 1 2 2.0278732514993617e-01 6.4572751999980627e+00 8.2251929309122342e+00 4.1662570933003593e+00 0 0 0
186 1 2 1.9934716201910924e-01 5.0186566934853367e+00 1.6696768724808525e+01 2.3500088539139572e+00 0 0 0
190 1 2 2.3015734530128992e-01 5.4204149442745475e+00 -3.4644678295283837e-01 2.7648433645864667e+00 0 0 0
193 1 3 -1.4408227266232779e-01 1.2511566253365149e+00 6.8007123738450908e+00 1.1017936238295256e+01 0 0 0
195 1 3 -1.5992246545281419e-01 -9.2381289307113934e-01 1.4885701651278190e+01 9.0789593501772572e+00 0 0 0
196 1 3 -1.5918166500682923e-01 6.6396759745361971e+00 2.7265072512720455e+01 3.7325728546923713e+00 0 0 0
197 1 3 -1.4819186305133694e-01 6.0538125238679363e-01 2.2904456491956257e+01 1.0222079536265024e+01 0 0 0
199 1 3 -1.5501509066652516e-01 1.1930676071472357e-02 -2.1527802866289125e+00 9.0771413204511511e+00 0 0 0
200 1 3 -1.4285917352173677e-01 7.0518286605790070e+00 1.1208308053190894e+01 4.0299057528801612e+00 0 0 0
202 1 3 -1.4733366973459572e-01 4.8464577118367922e+00 1.9905312211234826e+01 2.0697203324388433e+00 0 0 0
206 1 3 -1.4408098688642937e-01 4.9972041045371780e+00 3.0261329570976656e+00 2.3201689208454606e+00 0 0 0
209 1 3 9.7487359667987994e-02 3.4630711939973668e-01 6.8300205565043548e+00 1.2312217003258912e+01 0 0 0
211 1 3 8.9619228118360067e-02 -8.8157212243554994e-02 1.4563573710839439e+01 7.7413518334392029e+00 0 0 0
212 1 3 8.9490805441441709e-02 5.9237473970476993e+00 2.7271080639371114e+01 5.1602625751320881e+00 0 0 0
213 1 3 9.2540529556155063e-02 -5.2560411725085787e-01 2.2847706631002794e+01 1.1369363804912229e+01 0 0 0
215 1 3 1.0056715490433012e-01 8.1793716831866359e-01 -2.4542535973091253e+00 7.7178533726714909e+00 0 0 0
216 1 3 8.7814789144220626e-02 6.2373718333920598e+00 1.1362713760974522e+01 5.3621101676197425e+00 0 0 0
218 1 3 9.3036733104994052e-02 5.7855638025867568e+00 1.9826138766299550e+01 7.7846101973354154e-01 0 0 0
222 1 3 9.6844102014849276e-02 6.3591399518899152e+00 3.2456540974753247e+00 1.4503244946682630e+00 0 0 0
225 1 3 -1.6482665083307158e-01 1.3713196223152431e+00 7.5655051208883624e+00 8.4664758444364452e+00 0 0 0
227 1 3 -1.6414974413722028e-01 -1.4848825226016960e-01 1.5577362079694854e+01 1.1576052530844358e+01 0 0 0
228 1 3 -1.7438300812661986e-01 5.7128863988160532e+00 2.6403718383462234e+01 1.3773425741187784e+00 0 0 0
229 1 3 -1.6801070793338074e-01 5.8757671084568397e-01 2.3394149104051632e+01 7.5406918016366209e+00 0 0 0
231 1 3 -1.6993700831794523e-01 6.0268236644205997e-01 -7.2187897833451187e-01 1.1295322260309138e+01 0 0 0
232 1 3 -1.6091921140909091e-01 6.8332099238904513e+00 1.0288044169934526e+01 1.5207135631926161e+00 0 0 0
234 1 3 -1.6584497547573471e-01 4.8537055584986257e+00 1.9164086491961601e+01 4.6287265447051427e+00 0 0 0
235 1 3 -1.5368824405736944e-01 8.3193940242733166e+00 1.6317714898913927e+01 1.1028303417321688e+01 0 0 0
238 1 3 -1.7506276782810329e-01 4.5582939523031643e+00 2.2253738846071522e+00 4.8489356015293339e+00 0 0 0
239 1 3 -1.7565015451781477e-01 8.6601434676892772e+00 -9.0298403052170961e-01 1.0912529402396785e+01 0 0 0
241 1 3 1.0333101518562422e-01 2.5125995125487699e-01 6.5084218882780043e+00 8.0263589839805718e+00 0 0 0
243 1 3 8.9993516527299866e-02 9.3242132751086482e-01 1.4378235624647928e+01 1.1755640055364402e+01 0 0 0
244 1 3 1.0238381156619281e-01 4.4695079123234365e+00 2.7417511346589073e+01 1.0212983143220566e+00 0 0 0
245 1 3 9.7988215484944852e-02 1.0469758716500976e-01 2.1936234422510513e+01 7.0161954320183799e+00 0 0 0
247 1 3 9.9180941994543914e-02 1.6573116459202144e+00 -1.8374121543977315e+00 1.1747585172694741e+01 0 0 0
248 1 3 1.0248711120730628e-01 6.0967447114607047e+00 1.1532611529386411e+01 7.8086305089283647e-01 0 0 0
250 1 3 1.0073252975541856e-01 5.7059443780921999e+00 2.0435100138354660e+01 5.1134595329386370e+00 0 0 0
254 1 3 9.9654288520492296e-02 5.3742439249345422e+00 3.4522926548951816e+00 5.4952746982519196e+00 0 0 0
257 1 3 -1.6791517942091772e-01 3.3479153801018207e+00 5.9205235493018691e+00 9.1416568005565360e+00 0 0 0
261 1 3 -1.4858371701373005e-01 2.9140568526769814e+00 2.2607484534931931e+01 8.5626962257959995e+00 0 0 0
264 1 3 -1.5953266399852048e-01 9.1315769150289796e+00 1.1498699476142383e+01 2.0250494320433070e+00 0 0 0
266 1 3 -1.6963460750975570e-01 2.6176431925553265e+00 2.0468287358484687e+01 4.0293699296809766e+00 0 0 0
267 1 3 -1.6253604139262981e-01 6.7122742653467702e+00 1.4296117783898740e+01 1.0540771748146597e+01 0 0 0
268 1 3 -1.5713700058345692e-01 -8.8058646842884669e-01 2.8899601159667949e+01 2.2460112595922341e+00 0 -1 0
270 1 3 -1.3920548101467911e-01 2.4921913163572182e+00 3.5550703589407116e+00 3.7574052414720303e+00 0 0 0
271 1 3 -1.4976617067749154e-01 6.4479387981882645e+00 -2.3413793331774300e+00 1.0687348887700960e+01 0 1 0
272 1 3 -1.7983008767525491e-01 -5.5761944283717058e-01 1.2069982354989587e+01 1.6617100716205995e+00 0 0 0
273 1 3 1.0998659960942191e-01 2.4723187288483004e+00 4.6069819756795987e+00 9.4536886733993413e+00 0 0 0
275 1 3 8.8817485978076316e-02 -1.7252255834138424e+00 1.2897268417235718e+01 1.1309007839822922e+01 0 0 0
276 1 3 1.0270849637764054e-01 7.9011730373156901e+00 -4.1133393475552600e+00 1.5500110412992110e+00 0 0 0
277 1 3 1.1575744553829714e-01 2.4058876159707605e+00 2.1115559304916804e+01 8.8527785028481567e+00 0 0 0
280 1 3 1.0902621516583624e-01 8.4598098301443994e+00 1.2925483132320640e+01 2.2043863559931318e+00 0 0 0
282 1 3 1.1617911782684447e-01 3.1559606561351514e+00 2.1987037528397092e+01 3.9529041589382601e+00 0 0 0
283 1 3 1.0476297447422686e-01 7.6417656721657297e+00 1.3004569474905555e+01 1.0627011897919321e+01 0 0 0
286 1 3 1.1282871216668185e-01 3.2679978881319105e+00 4.9585308988062753e+00 3.8031747788155075e+00 0 0 0
287 1 3 1.0613595090162134e-01 6.4207230268283926e+00 2.9888068965462733e+01 1.0484025052005336e+01 0 0 0
289 1 3 -1.6352463766071773e-01 4.8848119247422908e+00 7.8488898304976082e+00 9.6029032181493506e+00 0 0 0
293 1 3 -1.6480519541915140e-01 3.6377885261545160e+00 2.4930197296926760e+01 9.2319887966552656e+00 0 0 0
298 1 3 -1.5299462173806583e-01 1.4097878681678386e+00 1.8312636213195550e+01 3.4041203484480369e+00 0 0 0
299 1 3 -1.5975496960739291e-01 4.7697723818020350e+00 1.5840232898388347e+01 1.0087371719885425e+01 0 0 0
300 1 3 -1.3948389860446395e-01 6.2149794436433747e-01 2.7012186376429639e+01 2.7511892821376525e+00 0 0 0
302 1 3 -1.6973588989339045e-01 1.7396496916983217e+00 1.5097140460138725e+00 2.5930795447446551e+00 0 0 0
303 1 3 -1.7490066392185599e-01 5.2389639840010247e+00 -5.1041518282834364e-01 9.5982655152793228e+00 0 0 0
304 1 3 -1.7251253017608958e-01 1.0150272585176563e+00 1.0240244178366897e+01 2.5915479754966140e+00 0 0 0
305 1 3 9.7441045046984032e-02 5.8511923171032905e+00 8.7274985313909799e+00 1.0556752472237388e+01 0 0 0
309 1 3 1.0491260960926481e-01 3.9530734004707657e+00 2.6230747758162181e+01 1.0158970583367406e+01 0 0 0
314 1 3 9.5692731013852367e-02 7.8758796824797028e-01 1.7371298933541155e+01 2.2688766175600983e+00 0 0 0
315 1 3 9.5931636011536217e-02 3.6403231278549462e+00 1.6485863234028237e+01 9.1634123314073150e+00 0 0 0
316 1 3 1.0024070135852589e-01 1.4408401061687401e+00 2.6066105829720225e+01 3.7845762920992181e+00 0 0 0
318 1 3 9.8201576338143748e-02 1.0802470734516856e+00 4.1879999934437251e-01 1.5814349176892646e+00 0 0 0
319 1 3 9.4478380773459797e-02 4.3105828752221313e+00 4.6088953276076428e-01 8.7103232463850482e+00 0 0 0
320 1 3 9.6807360311016097e-02 1.8291737539754300e+00 9.2588402269467629e+00 3.5581242474383998e+00 0 0 0
321 1 3 -1.7844144234564219e-01 2.8846428292377766e+00 9.5409828563726613e+00 9.3149647830340783e+00 0 0 0
324 1 3 -1.9127813937183172e-01 7.5059256322632635e+00 2.4359821915300056e+01 1.5500561077331092e+00 0 0 0
325 1 3 -1.6541621876785886e-01 1.3942723558209871e+00 2.5989929050695284e+01 8.2567550778867940e+00 0 0 0
328 1 3 -1.6627035120602429e-01 7.8415300579221476e+00 8.0151027602209250e+00 2.4675092547442325e+00 0 0 0
330 1 3 -1.7400063599734145e-01 3.5482174982558545e+00 1.6902395476849456e+01 3.9628350963847341e+00 0 0 0
331 1 3 -1.5980968324629891e-01 6.4158011327193636e+00 1.7911258611348615e+01 1.0005984999513249e+01 0 0 0
332 1 3 -1.6122979373874771e-01 1.6277537990789511e+01 2.5172354044125669e+01 2.4020825400517745e+00 -1 0 0
334 1 3 -1.7578777804905035e-01 3.4669125914891543e+00 -5.5717406643529088e-02 3.8822347031198641e+00 0 0 0
335 1 3 -1.6285305671991390e-01 7.1446941820315137e+00 1.2438797821908683e+00 1.0238728839508344e+01 0 0 0
336 1 3 -1.7185523583068135e-01 1.6787494308538147e+01 8.3009685249085940e+00 2.0196461752814190e+00 -1 0 0
337 1 3 9.1185155413144675e-02 3.5545603683746587e+00 1.0991751121169461e+01 9.3585840649880936e+00 0 0 0
341 1 3 9.7874890878328485e-02 1.6742064696633150e+00 2.7542970724795779e+01 8.5043667540210350e+00 0 0 0
346 1 3 9.7586628181293364e-02 3.0099919816868828e+00 1.5440938401415050e+01 3.5560489412235343e+00 0 0 0
347 1 3 1.0133079739253838e-01 5.3131622277890989e+00 1.8979595487414915e+01 9.6725363594792846e+00 0 0 0
348 1 3 9.5853205319651372e-02 -3.3522021689067061e-01 2.3950489458638369e+01 2.8706406615603437e+00 0 0 0
350 1 3 9.5986792195695614e-02 2.9532078438200258e+00 -1.5566452582397750e+00 3.4927598100897557e+00 0 0 0
351 1 3 1.0452219520362652e-01 6.4665375916128172e+00 2.6552556763010609e+00 9.8390033176729759e+00 0 0 0
352 1 3 9.7392901802710360e-02 1.1445779883493179e-01 7.0041550766508305e+00 2.3370066569431756e+00 0 0 0
353 1 3 -1.5073035236293578e-01 3.0204240267894793e+00 8.4620111462276046e+00 1.1736832778516980e+01 0 0 0
356 1 3 -1.4120690776344488e-01 8.0775211746976154e+00 2.5171433625498484e+01 4.0253172227776517e+00 0 0 0
357 1 3 -1.4229934220246562e-01 1.2491196944270047e+00 2.5302636949362341e+01 1.0787577280777015e+01 0 0 0
359 1 3 -1.5224160450246987e-01 1.6148194710090401e+01 -2.8980742538402682e-01 8.1274967388101054e+00 -1 0 0
360 1 3 -1.5813206605685301e-01 8.2746679095321731e+00 9.1874148970618812e+00 4.8269582602957355e+00 0 0 0
362 1 3 -1.5919781329591703e-01 3.4942874887309294e+00 1.7885316710582689e+01 1.4115883169578121e+00 0 0 0
363 1 3 -1.5973747570799721e-01 6.4658978602455806e+00 1.6499120665119772e+01 7.6899498623331679e+00 0 0 0
366 1 3 -1.5466489404929906e-01 4.3372921858951692e+00 6.8754450989404159e-01 1.4310622378410491e+00 0 0 0
367 1 3 -1.4647378856588056e-01 7.2170521683969788e+00 3.0586732852019516e-01 7.7456019185675506e+00 0 0 0
369 1 3 9.1735842512484109e-02 4.5465542186569339e+00 8.0848794503139576e+00 -2.6749558999558248e-01 0 0 1
371 1 3 9.6995186180692555e-02 -1.1498560590883784e+00 1.7364965513627851e+01 7.2504956761273434e+00 0 0 0
372 1 3 9.4429919298665094e-02 7.5468164259050798e+00 2.4761520465983079e+01 5.4637267593225678e+00 0 0 0
373 1 3 8.5807407013706399e-02 1.3138759899439290e-01 2.5491850614522985e+01 1.1903206040299338e+01 0 0 0
375 1 3 8.6658586619328654e-02 -8.5810476641067002e-01 -3.5246647922757113e-01 6.6255606770970754e+00 0 0 0
376 1 3 8.9912918053790536e-02 7.7410054396094061e+00 8.9499042761338039e+00 6.2953710500998650e+00 0 0 0
378 1 3 8.3960804899667257e-02 4.0309521553627174e+00 1.7679670955183543e+01 -6.9693203567581186e-02 0 0 0
382 1 3 8.0362517601403713e-02 5.5714587948567376e+00 4.0087024170609453e-01 4.7497853000570078e-01 0 0 0
385 1 4 -1.1737680211119264e-01 -7.5923896545564973e-01 7.4973849294498045e+00 1.2262901703346131e+01 0 0 0
387 1 4 -9.5680318658375424e-02 1.1767935378728054e+00 1.4318543165009700e+01 7.7921178814610910e+00 0 0 0
388 1 4 -1.3817970310150812e-01 4.8753537992048379e+00 2.6579034896034710e+01 5.3975113943706230e+00 0 0 0
389 1 4 -1.1380155597167042e-01 -1.7855140417801549e+00 2.2981951294963388e+01 1.1105959303731037e+01 0 0 0
391 1 4 -1.3885930904640092e-01 1.9331624343841445e+00 -1.8252315869585427e+00 7.5943826457515495e+00 0 0 0
392 1 4 -1.4288367592317400e-01 5.1847389135113851e+00 1.0616687895390928e+01 5.6109356285619896e+00 0 0 0
394 1 4 -1.1767335135860571e-01 6.7003800107562848e+00 1.8940736156271246e+01 8.3129215824869873e-01 0 0 0
398 1 4 -9.7696197180001429e-02 7.5024601286300623e+00 2.9940592962393229e+00 1.9640051010822055e+00 0 0 0
401 1 4 -1.3665959736989428e-01 2.6310710919423546e+00 5.1128829228617523e+00 -1.4025836223253252e-01 0 0 1
403 1 4 -1.1894515548148721e-01 -7.2183805515493460e-01 1.4296818297017040e+01 6.6879057673103270e+00 0 0 0
404 1 4 -9.5210134061229079e-02 6.4537203565772785e+00 2.7988293693960554e+01 6.0814590305733756e+00 0 0 0
405 1 4 -1.2677857716716739e-01 -1.9307876576883776e-01 2.2344455952027246e+01 1.2498315653254693e+01 0 0 0
407 1 4 -1.3530011263845149e-01 4.7654308404468582e-01 -3.3874520443302614e+00 6.9399917622094849e+00 0 0 0
408 1 4 -1.3769878630317264e-01 6.6498127301365724e+00 1.2241635373441159e+01 6.2367186071299452e+00 0 0 0
410 1 4 -1.1350811628184757e-01 3.3445881837440599e+00 2.1376108873909917e+01 1.3070169220450556e+01 0 0 -1
414 1 4 -1.4428809909274165e-01 6.2373948041540936e+00 3.8151120962317790e+00 3.1811789191226492e-01 0 0 0
417 1 4 -7.7134011741282385e-02 3.8362510394837046e-01 5.9270866787827714e+00 6.9072771563497835e+00 0 0 0
419 1 4 -7.0714044175338775e-02 1.5711163757331725e+00 1.4316712730381369e+01 1.2876493298402472e+01 0 0 0
420 1 4 -7.2091828437149424e-02 3.6511384487470893e+00 2.6926077866582560e+01 1.7599724537793709e-01 0 -1 0
421 1 4 -8.5279248956357509e-02 2.7787722033731721e-01 2.1677838959589188e+01 5.7430242579752981e+00 0 0 0
423 1 4 -6.5622081544263661e-02 2.1670754726505437e+00 -1.8101821303669339e+00 1.2960617559599665e+01 0 1 0
424 1 4 -9.8078600361413776e-02 4.3165271012161277e+00 1.2647376563571804e+01 1.2976038050844014e+01 0 0 -1
426 1 4 -9.5731706828278834e-02 5.2955970056439785e+00 2.0997659367514661e+01 6.1901642478702144e+00 0 0 0
430 1 4 -9.2008701426980685e-02 4.9513456111945233e+00 4.0567631190922970e+00 6.5235756920878121e+00 0 0 0
433 1 4 -1.0708562006204236e-01 -9.0503218807975716e-01 6.5520214477582552e+00 8.6146711805787106e+00 0 0 0
435 1 4 -9.6112382007543573e-02 1.1721580827215305e+00 1.3574138178148306e+01 1.0791648018606701e+01 0 0 -1
436 1 4 -7.7423914683313541e-02 4.2705763851557945e+00 2.8427143007597724e+01 1.7489651627262295e+00 0 0 1
437 1 4 -8.9326559366660785e-02 -4.4281016004343732e-01 2.1101252652365471e+01 7.7904289091064927e+00 0 0 0
439 1 4 -9.3610408316931487e-02 2.1743800294029771e+00 -2.5904892793361380e+00 1.0870516110052101e+01 0 0 -1
440 1 4 -8.6156139797473635e-02 5.0262314937959776e+00 1.2014178068626286e+01 1.2350226967845943e+00 0 0 1
442 1 4 -1.0134599511333922e-01 6.7437837105069391e+00 2.0820215500395026e+01 4.4779869741403449e+00 0 0 0
446 1 4 -8.4654507683577379e-02 6.4538507909181071e+00 3.8112863429218269e+00 4.8977786531290066e+00 0 0 0
449 1 4 -1.0233170623653848e-01 1.8961521916316222e+00 3.9183607392265856e+00 8.5432978765260579e+00 0 0 0
451 1 4 -1.3552960543242659e-01 -9.9923232688229802e-01 1.2416292630849842e+01 1.2208897985628361e+01 0 0 0
452 1 4 -9.8425607978467639e-02 7.3605790525923789e+00 -3.4778230336777671e+00 5.7686580686085120e-01 0 0 0
453 1 4 -1.1820974999238885e-01 2.4173165391319626e+00 2.0223398827731462e+01 7.9308467418805408e+00 0 0 0
455 1 4 -1.2616625839771442e-01 -1.4756994257915035e+00 2.9802370390422450e+01 1.2960013866528069e+01 0 0 0
456 1 4 -1.1886229243357123e-01 8.4963281530978119e+00 1.3732439009856122e+01 1.1810773765329832e+00 0 0 0
458 1 4 -1.5391895123030802e-01 3.0072447994781468e+00 2.2780125920960270e+01 4.9677500112971433e+00 0 0 0
459 1 4 -1.0957753244245230e-01 7.3082714368359234e+00 1.2131932478804835e+01 1.1527854573163697e+01 0 0 0
462 1 4 -1.0043892129337184e-01 2.9878002551079597e+00 5.7718674931675640e+00 4.7647001318811393e+00 0 0 0
463 1 4 -1.0830131105073458e-01 6.3295455399725071e+00 2.9004195321657374e+01 1.1417968049549469e+01 0 0 0
465 1 4 -1.2570801616288160e-01 2.4942631360558947e+00 4.1752181777796640e+00 1.0638551792963177e+01 0 0 0
467 1 4 -1.0155696711097827e-01 -1.8983358266666359e+00 1.2311988297989586e+01 1.0143354608826243e+01 0 0 0
468 1 4 -1.0045235896096258e-01 8.1225625072554895e+00 -3.5630233305816592e+00 2.6966936906197092e+00 0 0 0
469 1 4 -9.2104474532368932e-02 2.1095438662490893e+00 2.0839884121630359e+01 1.0103516322149396e+01 0 0 0
471 1 4 -1.0716110613867794e-01 -1.5566606790810371e+00 2.9104162647784687e+01 1.0852465218350421e+01 0 0 0
472 1 4 -9.8219268913867647e-02 8.2198337519168252e+00 1.3355901482681702e+01 3.3926812604316394e+00 0 0 0
474 1 4 -1.2411255078195889e-01 3.5453748273757815e+00 2.2447801410708930e+01 2.8540005119453848e+00 0 0 0
475 1 4 -9.4396439030296403e-02 8.3754443747823064e+00 1.2614327373474332e+01 9.6367351506251708e+00 0 0 0
478 1 4 -1.0030376049592257e-01 4.0339366666108347e+00 5.2353766129728321e+00 2.8261736909105202e+00 0 0 0
479 1 4 -8.2623821249471249e-02 6.9946762034690453e+00 2.9593197098235390e+01 9.3361803607665159e+00 0 0 0
481 1 4 -1.2847853118127561e-01 5.7834462148859487e+00 8.6437050705307659e+00 1.1828692432806353e+01 0 0 0
485 1 4 -8.6239521763923660e-02 4.7574103660696947e+00 2.7061493609739642e+01 9.7281844555250636e+00 0 0 0
490 1 4 -1.1186198916249843e-01 2.6721472916017558e-01 1.6255248946769409e+01 2.6338779396579812e+00 0 0 0
491 1 4 -1.1691760960745240e-01 3.6358986372125432e+00 1.6073238370821862e+01 7.9355976386567120e+00 0 0 0
492 1 4 -1.1354277590801173e-01 2.4218444008261373e+00 2.5340940315648375e+01 3.3838832352822270e+00 0 0 0
494 1 4 -1.3945557798719665e-01 1.0377763641464627e-01 -2.8131576699214778e-01 2.0095074047320627e+00 0 0 0
495 1 4 -1.2340646784131490e-01 3.3819974652034555e+00 1.0855786641629601e+00 9.3387773868570854e+00 0 0 0
496 1 4 -1.0718375718792911e-01 2.9251708135542565e+00 8.7082388609791899e+00 3.0684760274772325e+00 0 0 0
497 1 4 -1.0481824930303822e-01 6.5192254695311984e+00 9.6996095621820455e+00 1.0001579259503782e+01 0 0 0