ITEM: TIMESTEP
0
ITEM: NUMBER OF ATOMS
336
ITEM: BOX BOUNDS xy xz yz pp pp pp
0.0000000000000000e+00 2.6364000320399999e+01 0.0000000000000000e+00
0.0000000000000000e+00 1.1574000358599999e+01 0.0000000000000000e+00
0.0000000000000000e+00 1.0708999633800000e+01 0.0000000000000000e+00
ITEM: ATOMS id type xs ys zs
1 1 0.093533 0.355842 0.445797
2 1 0.906467 0.644158 0.554203
3 1 0.156467 0.644158 0.945797
4 1 0.343533 0.355842 0.0542032
5 1 0.906467 0.855842 0.0542032
6 1 0.093533 0.144158 0.945797
7 1 0.343533 0.144158 0.554203
8 1 0.156467 0.855842 0.445797
9 1 0.593533 0.355842 0.445797
10 1 0.406467 0.644158 0.554203
11 1 0.656467 0.644158 0.945797
12 1 0.843533 0.355842 0.0542032
13 1 0.406467 0.855842 0.0542032
14 1 0.593533 0.144158 0.945797
15 1 0.843533 0.144158 0.554203
16 1 0.656467 0.855842 0.445797
17 1 0.0241829 0.238223 0.339719
18 1 0.975817 0.761777 0.660281
19 1 0.225817 0.761777 0.83972
20 1 0.274183 0.238223 0.160281
21 1 0.975817 0.738223 0.160281
22 1 0.0241829 0.261777 0.83972
23 1 0.274183 0.261777 0.66028
24 1 0.225817 0.738223 0.339719
25 1 0.524183 0.238223 0.339719
26 1 0.475817 0.761777 0.66028
27 1 0.725817 0.761777 0.83972
28 1 0.774183 0.238223 0.160281
29 1 0.475817 0.738223 0.160281
30 1 0.524183 0.261777 0.83972
31 1 0.774183 0.261777 0.66028
32 1 0.725817 0.738223 0.33972
33 1 0.0754414 0.379753 0.208691
34 1 0.924559 0.620247 0.791309
35 1 0.174559 0.620247 0.708691
36 1 0.325441 0.379753 0.291309
37 1 0.924559 0.879752 0.29131
38 1 0.0754414 0.120247 0.708691
39 1 0.325441 0.120247 0.791309
40 1 0.174559 0.879753 0.208691
41 1 0.575441 0.379753 0.208691
42 1 0.424559 0.620247 0.791309
43 1 0.674559 0.620247 0.708691
44 1 0.825441 0.379753 0.29131
45 1 0.424559 0.879752 0.29131
46 1 0.575441 0.120247 0.708691
47 1 0.825441 0.120247 0.791309
48 1 0.674559 0.879753 0.208691
49 2 0.123671 0.29306 0.425065
50 2 0.876329 0.70694 0.574935
51 2 0.126329 0.70694 0.925065
52 2 0.373671 0.29306 0.0749354
53 2 0.876329 0.79306 0.0749354
54 2 0.123671 0.20694 0.925065
55 2 0.373671 0.20694 0.574935
56 2 0.126329 0.79306 0.425065
57 2 0.623671 0.29306 0.425065
58 2 0.376329 0.70694 0.574935
59 2 0.626329 0.70694 0.925065
60 2 0.873671 0.29306 0.0749354
61 2 0.376329 0.79306 0.0749354
62 2 0.623671 0.20694 0.925065
63 2 0.873671 0.20694 0.574935
64 2 0.626329 0.79306 0.425065
65 2 0.102556 0.407306 0.528824
66 2 0.897444 0.592694 0.471176
67 2 0.147444 0.592694 0.0288242
68 2 0.352556 0.407306 0.971176
69 2 0.897444 0.907306 0.971176
70 2 0.102556 0.0926944 0.0288242
71 2 0.352556 0.0926944 0.471176
72 2 0.147444 0.907306 0.528824
73 2 0.602556 0.407306 0.528824
74 2 0.397444 0.592694 0.471176
75 2 0.647444 0.592694 0.0288242
76 2 0.852556 0.407306 0.971176
77 2 0.397444 0.907306 0.971176
78 2 0.602556 0.0926944 0.0288242
79 2 0.852556 0.0926944 0.471176
80 2 0.647444 0.907306 0.528824
81 2 0.985602 0.207077 0.353964
82 2 0.0143982 0.792923 0.646036
83 2 0.264398 0.792923 0.853964
84 2 0.235602 0.207077 0.146036
85 2 0.0143982 0.707077 0.146036
86 2 0.985602 0.292923 0.853964
87 2 0.235602 0.292923 0.646036
88 2 0.264398 0.707077 0.353964
89 2 0.485602 0.207077 0.353964
90 2 0.514398 0.792923 0.646037
91 2 0.764398 0.792923 0.853964
92 2 0.735602 0.207077 0.146036
93 2 0.514398 0.707077 0.146036
94 2 0.485602 0.292923 0.853964
95 2 0.735602 0.292923 0.646037
96 2 0.764398 0.707077 0.353964
97 2 0.0497521 0.166222 0.318931
98 2 0.950248 0.833778 0.681069
99 2 0.200248 0.833778 0.818931
100 2 0.299752 0.166222 0.181069
101 2 0.950248 0.666222 0.181069
102 2 0.0497521 0.333778 0.818931
103 2 0.299752 0.333778 0.681069
104 2 0.200248 0.666222 0.318931
105 2 0.549752 0.166222 0.318931
106 2 0.450248 0.833778 0.681069
107 2 0.700248 0.833778 0.818931
108 2 0.799752 0.166222 0.181069
109 2 0.450248 0.666222 0.181069
110 2 0.549752 0.333778 0.818931
111 2 0.799752 0.333778 0.681069
112 2 0.700248 0.666222 0.318931
113 2 0.105288 0.316845 0.186979
114 2 0.894712 0.683155 0.813021
115 2 0.144712 0.683155 0.686979
116 2 0.355288 0.316845 0.313021
117 2 0.894712 0.816845 0.313021
118 2 0.105288 0.183155 0.686979
119 2 0.355288 0.183155 0.813021
120 2 0.144712 0.816845 0.186979
121 2 0.605288 0.316845 0.186979
122 2 0.394712 0.683155 0.813021
123 2 0.644712 0.683155 0.686979
124 2 0.855288 0.316845 0.313021
125 2 0.394712 0.816845 0.313021
126 2 0.605288 0.183155 0.686979
127 2 0.855288 0.183155 0.813021
128 2 0.644712 0.816845 0.186979
129 2 0.0730435 0.445638 0.135358
130 2 0.926957 0.554362 0.864642
131 2 0.176957 0.554362 0.635358
132 2 0.323043 0.445638 0.364642
133 2 0.926957 0.945638 0.364642
134 2 0.0730435 0.0543624 0.635358
135 2 0.323043 0.0543624 0.864642
136 2 0.176957 0.945638 0.135358
137 2 0.573043 0.445638 0.135358
138 2 0.426957 0.554362 0.864642
139 2 0.676957 0.554362 0.635358
140 2 0.823043 0.445638 0.364642
141 2 0.426957 0.945638 0.364642
142 2 0.573043 0.0543624 0.635358
143 2 0.823043 0.0543624 0.864642
144 2 0.676957 0.945638 0.135358
145 3 0.0881557 0.432694 0.333106
146 3 0.911844 0.567306 0.666894
147 3 0.161844 0.567306 0.833106
148 3 0.338156 0.432694 0.166894
149 3 0.911844 0.932694 0.166894
150 3 0.0881557 0.0673064 0.833106
151 3 0.338156 0.0673065 0.666894
152 3 0.161844 0.932694 0.333106
153 3 0.588156 0.432694 0.333106
154 3 0.411844 0.567306 0.666894
155 3 0.661844 0.567306 0.833106
156 3 0.838156 0.432694 0.166894
157 3 0.411844 0.932694 0.166894
158 3 0.588156 0.0673064 0.833106
159 3 0.838156 0.0673065 0.666894
160 3 0.661844 0.932694 0.333106
161 3 0.0462648 0.282168 0.461313
162 3 0.953735 0.717832 0.538687
163 3 0.203735 0.717832 0.961313
164 3 0.296265 0.282168 0.0386874
165 3 0.953735 0.782168 0.0386873
166 3 0.0462648 0.217832 0.961313
167 3 0.296265 0.217832 0.538687
168 3 0.203735 0.782168 0.461313
169 3 0.546265 0.282168 0.461313
170 3 0.453735 0.717832 0.538687
171 3 0.703735 0.717832 0.961313
172 3 0.796265 0.282168 0.0386874
173 3 0.453735 0.782168 0.0386873
174 3 0.546265 0.217832 0.961313
175 3 0.796265 0.217832 0.538687
176 3 0.703735 0.782168 0.461313
177 3 0.0273882 0.307814 0.22023
178 3 0.972612 0.692186 0.77977
179 3 0.222612 0.692186 0.72023
180 3 0.277388 0.307814 0.27977
181 3 0.972612 0.807814 0.27977
182 3 0.0273882 0.192186 0.72023
183 3 0.277388 0.192186 0.77977
184 3 0.222612 0.807814 0.22023
185 3 0.527388 0.307814 0.22023
186 3 0.472612 0.692186 0.77977
187 3 0.722612 0.692186 0.72023
188 3 0.777388 0.307814 0.27977
189 3 0.472612 0.807814 0.27977
190 3 0.527388 0.192186 0.72023
191 3 0.777388 0.192186 0.77977
192 3 0.722612 0.807814 0.22023
193 3 0.115702 0.547585 0.334703
194 3 0.884298 0.452415 0.665297
195 3 0.134298 0.452415 0.834703
196 3 0.365702 0.547585 0.165297
197 3 0.884298 0.0475854 0.165297
198 3 0.115702 0.952415 0.834703
199 3 0.365702 0.952415 0.665297
200 3 0.134298 0.0475853 0.334703
201 3 0.615702 0.547585 0.334703
202 3 0.384298 0.452415 0.665297
203 3 0.634298 0.452415 0.834703
204 3 0.865702 0.547585 0.165297
205 3 0.384298 0.0475854 0.165297
206 3 0.615702 0.952415 0.834703
207 3 0.865702 0.952415 0.665297
208 3 0.634298 0.0475853 0.334703
209 3 0.00590059 0.353427 0.532538
210 3 0.994099 0.646573 0.467462
211 3 0.244099 0.646573 0.0325378
212 3 0.255901 0.353427 0.967462
213 3 0.994099 0.853427 0.967462
214 3 0.00590059 0.146573 0.0325378
215 3 0.255901 0.146573 0.467462
216 3 0.244099 0.853427 0.532538
217 3 0.505901 0.353427 0.532538
218 3 0.494099 0.646573 0.467462
219 3 0.744099 0.646573 0.0325378
220 3 0.755901 0.353427 0.967462
221 3 0.494099 0.853427 0.967462
222 3 0.505901 0.146573 0.0325378
223 3 0.755901 0.146573 0.467462
224 3 0.744099 0.853427 0.532538
225 3 0.980994 0.388544 0.205463
226 3 0.0190057 0.611456 0.794537
227 3 0.269006 0.611456 0.705463
228 3 0.230994 0.388544 0.294537
229 3 0.0190057 0.888544 0.294537
230 3 0.980994 0.111456 0.705463
231 3 0.230994 0.111456 0.794537
232 3 0.269006 0.888544 0.205463
233 3 0.480994 0.388544 0.205463
234 3 0.519006 0.611456 0.794537
235 3 0.769006 0.611456 0.705463
236 3 0.730994 0.388544 0.294537
237 3 0.519006 0.888544 0.294537
238 3 0.480994 0.111456 0.705463
239 3 0.730994 0.111456 0.794537
240 3 0.769006 0.888544 0.205463
241 4 0.116217 0.6064 0.233809
242 4 0.883783 0.3936 0.766191
243 4 0.133783 0.3936 0.733809
244 4 0.366217 0.6064 0.266191
245 4 0.883783 0.1064 0.266191
246 4 0.116217 0.8936 0.733809
247 4 0.366217 0.8936 0.766191
248 4 0.133783 0.1064 0.233809
249 4 0.616217 0.6064 0.233809
250 4 0.383783 0.3936 0.766191
251 4 0.633783 0.3936 0.733809
252 4 0.866217 0.6064 0.266191
253 4 0.383783 0.1064 0.266191
254 4 0.616217 0.8936 0.733809
255 4 0.866217 0.8936 0.766191
256 4 0.633783 0.1064 0.233809
257 4 0.135704 0.580011 0.437481
258 4 0.864296 0.419989 0.562519
259 4 0.114296 0.419989 0.937481
260 4 0.385704 0.580011 0.0625194
261 4 0.864296 0.0800105 0.0625194
262 4 0.135704 0.919989 0.937481
263 4 0.385704 0.919989 0.562519
264 4 0.114296 0.0800105 0.437481
265 4 0.635704 0.580011 0.437481
266 4 0.364296 0.419989 0.562519
267 4 0.614296 0.419989 0.937481
268 4 0.885704 0.580011 0.0625194
269 4 0.364296 0.0800105 0.0625194
270 4 0.635704 0.919989 0.937481
271 4 0.885704 0.919989 0.562519
272 4 0.614296 0.0800105 0.437481
273 4 0.96043 0.316361 0.531409
274 4 0.0395697 0.683639 0.468591
275 4 0.28957 0.683639 0.031409
276 4 0.21043 0.316361 0.968591
277 4 0.0395697 0.816361 0.968591
278 4 0.96043 0.183639 0.031409
279 4 0.21043 0.183639 0.468591
280 4 0.28957 0.816361 0.531409
281 4 0.46043 0.316361 0.531409
282 4 0.53957 0.683639 0.468591
283 4 0.78957 0.683639 0.031409
284 4 0.71043 0.316361 0.968591
285 4 0.53957 0.816361 0.968591
286 4 0.46043 0.183639 0.031409
287 4 0.71043 0.183639 0.468591
288 4 0.78957 0.816361 0.531409
289 4 0.0205568 0.432675 0.606993
290 4 0.979443 0.567324 0.393007
291 4 0.229443 0.567325 0.106993
292 4 0.270557 0.432676 0.893007
293 4 0.979443 0.932676 0.893007
294 4 0.0205568 0.0673245 0.106993
295 4 0.270557 0.0673245 0.393007
296 4 0.229443 0.932675 0.606993
297 4 0.520557 0.432675 0.606993
298 4 0.479443 0.567325 0.393007
299 4 0.729443 0.567325 0.106993
300 4 0.770557 0.432676 0.893007
301 4 0.479443 0.932675 0.893007
302 4 0.520557 0.0673245 0.106993
303 4 0.770557 0.0673245 0.393007
304 4 0.729443 0.932675 0.606993
305 4 0.938702 0.356397 0.250714
306 4 0.0612976 0.643603 0.749286
307 4 0.311298 0.643603 0.750714
308 4 0.188702 0.356397 0.249286
309 4 0.0612976 0.856397 0.249286
310 4 0.938702 0.143603 0.750714
311 4 0.188702 0.143603 0.749286
312 4 0.311298 0.856397 0.250714
313 4 0.438702 0.356397 0.250714
314 4 0.561298 0.643603 0.749286
315 4 0.811298 0.643603 0.750714
316 4 0.688702 0.356397 0.249286
317 4 0.561298 0.856397 0.249286
318 4 0.438702 0.143603 0.750714
319 4 0.688702 0.143603 0.749286
320 4 0.811298 0.856397 0.250714
321 4 0.985227 0.477006 0.135281
322 4 0.0147726 0.522994 0.864719
323 4 0.264773 0.522994 0.635281
324 4 0.235227 0.477006 0.364719
325 4 0.0147726 0.977006 0.364719
326 4 0.985227 0.0229936 0.635281
327 4 0.235227 0.0229936 0.864719
328 4 0.264773 0.977006 0.135281
329 4 0.485227 0.477006 0.135281
330 4 0.514773 0.522994 0.864719
331 4 0.764773 0.522994 0.635281
332 4 0.735227 0.477006 0.364719
333 4 0.514773 0.977006 0.364719
334 4 0.485227 0.0229937 0.635281
335 4 0.735227 0.0229936 0.864719
336 4 0.764773 0.977006 0.135281
ITEM: TIMESTEP
1000
ITEM: NUMBER OF ATOMS
336
ITEM: BOX BOUNDS xy xz yz pp pp pp
-1.5678644129691266e-01 2.6430854424034109e+01 -2.6777740092320361e-02
-1.7456574216700993e-01 1.1772930359605500e+01 -6.3154597570451707e-02
-4.0925683782860389e-01 1.1118256471628584e+01 2.4364258838484410e-02
ITEM: ATOMS id type xs ys zs
1 1 0.111391 0.357341 0.383859
2 1 0.912762 0.607411 0.565353
3 1 0.148235 0.621603 0.941823
4 1 0.33126 0.412076 0.0543081
5 1 0.91888 0.910139 0.0672744
6 1 0.10953 0.117025 0.90342
7 1 0.34831 0.105849 0.540859
8 1 0.1549 0.881199 0.450556
9 1 0.592938 0.418484 0.447746
10 1 0.40979 0.661974 0.552581
11 1 0.644411 0.597962 0.977338
12 1 0.844141 0.41148 0.0811245
13 1 0.393749 0.879659 0.0618236
14 1 0.594012 0.137181 0.968998
15 1 0.835591 0.0917162 0.517463
16 1 0.647656 0.871878 0.42317
17 1 0.0314235 0.257597 0.30683
18 1 0.973024 0.730232 0.690962
19 1 0.217183 0.723132 0.820983
20 1 0.288356 0.263378 0.176055
21 1 0.977755 0.764867 0.164505
22 1 0.0425176 0.219397 0.777788
23 1 0.29641 0.236128 0.669283
24 1 0.205693 0.75088 0.323572
25 1 0.528191 0.277467 0.357925
26 1 0.479751 0.766383 0.662688
27 1 0.70128 0.712247 0.846207
28 1 0.797611 0.277511 0.216781
29 1 0.463231 0.784626 0.194069
30 1 0.52154 0.237332 0.847213
31 1 0.783276 0.224739 0.642319
32 1 0.719839 0.781972 0.299638
33 1 0.0807402 0.384672 0.16824
34 1 0.911185 0.588158 0.782439
35 1 0.1561 0.584768 0.720636
36 1 0.345635 0.400768 0.274339
37 1 0.917714 0.887487 0.285882
38 1 0.0995597 0.0727292 0.686549
39 1 0.350264 0.0813046 0.761509
40 1 0.162115 0.918223 0.22514
41 1 0.581513 0.399593 0.225471
42 1 0.428009 0.616268 0.773554
43 1 0.649809 0.553467 0.754288
44 1 0.828413 0.464029 0.300653
45 1 0.397594 0.904744 0.29057
46 1 0.594317 0.123429 0.748519
47 1 0.824517 0.0564382 0.742138
48 1 0.660686 0.936082 0.205999
49 2 0.144378 0.303777 0.38917
50 2 0.888038 0.607002 0.491626
51 2 0.117151 0.681427 0.952573
52 2 0.346553 0.424304 0.966467
53 2 0.895396 0.919383 0.989434
54 2 0.141578 0.174533 0.919759
55 2 0.374107 0.121253 0.469974
56 2 0.118899 0.840587 0.474293
57 2 0.627669 0.391673 0.489824
58 2 0.377937 0.714761 0.529138
59 2 0.612934 0.660237 0.98601
60 2 0.876968 0.394763 0.0302219
61 2 0.367191 0.815348 0.0504889
62 2 0.621351 0.198487 0.00239976
63 2 0.871527 0.135361 0.488197
64 2 0.615284 0.825668 0.454717
65 2 0.120021 0.414923 0.45532
66 2 0.937579 0.537 0.54615
67 2 0.148532 0.577849 0.0256408
68 2 0.300649 0.478674 0.0478896
69 2 0.942541 0.984767 0.0475828
70 2 0.109489 0.0619229 0.98283
71 2 0.328687 0.0298694 0.505614
72 2 0.164164 0.935795 0.521365
73 2 0.581875 0.49534 0.495679
74 2 0.408255 0.600455 0.483411
75 2 0.643408 0.550568 0.0594743
76 2 0.828987 0.470297 0.0176501
77 2 0.393329 0.933112 0.983821
78 2 0.588638 0.0657073 0.027774
79 2 0.823794 0.0309943 0.45088
80 2 0.652752 0.935587 0.49049
81 2 0.993929 0.266712 0.341837
82 2 0.0130068 0.741515 0.682692
83 2 0.25671 0.733824 0.833157
84 2 0.250662 0.23266 0.186205
85 2 0.0174698 0.746957 0.149177
86 2 0.00546236 0.253312 0.778572
87 2 0.260899 0.282 0.668051
88 2 0.240251 0.709294 0.33103
89 2 0.488108 0.251381 0.368943
90 2 0.520741 0.768063 0.645842
91 2 0.739413 0.74179 0.837519
92 2 0.762539 0.227519 0.205424
93 2 0.503702 0.784257 0.182326
94 2 0.480712 0.222536 0.838542
95 2 0.745961 0.262974 0.642559
96 2 0.760658 0.775237 0.315562
97 2 0.0354149 0.168042 0.297323
98 2 0.955244 0.81381 0.71666
99 2 0.201945 0.807086 0.802615
100 2 0.309021 0.183432 0.186894
101 2 0.96006 0.685588 0.174151
102 2 0.0676 0.288773 0.752151
103 2 0.322235 0.304739 0.679302
104 2 0.176798 0.688194 0.300681
105 2 0.547526 0.195029 0.349861
106 2 0.472368 0.852757 0.675101
107 2 0.676106 0.784904 0.836436
108 2 0.827006 0.218529 0.249414
109 2 0.455464 0.696373 0.208203
110 2 0.526918 0.328874 0.831266
111 2 0.811692 0.289854 0.661205
112 2 0.712103 0.695361 0.273971
113 2 0.105749 0.332694 0.120073
114 2 0.884796 0.634936 0.837649
115 2 0.124971 0.630299 0.672192
116 2 0.371902 0.332546 0.298292
117 2 0.893548 0.82405 0.322374
118 2 0.126457 0.125516 0.64017
119 2 0.38238 0.110186 0.81566
120 2 0.128943 0.883887 0.184225
121 2 0.609483 0.341734 0.184031
122 2 0.404648 0.626403 0.853156
123 2 0.619343 0.576322 0.694585
124 2 0.854441 0.469309 0.37478
125 2 0.370459 0.839395 0.320488
126 2 0.619815 0.189952 0.719159
127 2 0.854525 0.0707586 0.809863
128 2 0.631115 0.910863 0.147336
129 2 0.0741216 0.457197 0.110779
130 2 0.919568 0.51035 0.835885
131 2 0.160958 0.508951 0.66298
132 2 0.346357 0.46712 0.342045
133 2 0.915224 0.953704 0.350197
134 2 0.0980155 0.99641 0.632553
135 2 0.339234 0.00425072 0.807915
136 2 0.17243 0.988637 0.16811
137 2 0.575508 0.460249 0.152496
138 2 0.442933 0.528348 0.78934
139 2 0.662793 0.469936 0.721526
140 2 0.805834 0.539198 0.317669
141 2 0.393833 0.965717 0.364436
142 2 0.599478 0.0633708 0.67746
143 2 0.808459 0.974339 0.770531
144 2 0.664712 0.0215923 0.174585
145 3 0.112339 0.422808 0.270016
146 3 0.88822 0.55685 0.667146
147 3 0.136809 0.552319 0.837878
148 3 0.362255 0.446024 0.159781
149 3 0.893513 0.936147 0.177313
150 3 0.123414 0.0461187 0.800709
151 3 0.374265 0.0550219 0.642024
152 3 0.14108 0.947594 0.342477
153 3 0.605939 0.457081 0.327981
154 3 0.394876 0.604924 0.666622
155 3 0.627927 0.531281 0.872283
156 3 0.856629 0.478862 0.187132
157 3 0.378385 0.941131 0.173333
158 3 0.614434 0.080529 0.860448
159 3 0.851185 0.0359296 0.6293
160 3 0.633598 0.944795 0.321163
161 3 0.0631016 0.291904 0.408732
162 3 0.950412 0.703841 0.572813
163 3 0.196984 0.68938 0.936427
164 3 0.29828 0.308751 0.0591561
165 3 0.955583 0.81546 0.053512
166 3 0.0617893 0.190429 0.897974
167 3 0.308913 0.195978 0.548277
168 3 0.197045 0.797279 0.442715
169 3 0.548675 0.340091 0.462905
170 3 0.458083 0.728628 0.54648
171 3 0.690603 0.668798 0.965805
172 3 0.81043 0.311594 0.0937591
173 3 0.440411 0.808302 0.0766212
174 3 0.543439 0.19415 0.962187
175 3 0.792254 0.173622 0.526658
176 3 0.695902 0.806564 0.417128
177 3 0.0325368 0.324729 0.194439
178 3 0.959369 0.657042 0.790461
179 3 0.204945 0.647914 0.717325
180 3 0.297984 0.33435 0.283181
181 3 0.968234 0.829259 0.275219
182 3 0.0502618 0.137525 0.683189
183 3 0.306062 0.158738 0.768824
184 3 0.204906 0.835046 0.225626
185 3 0.532878 0.336914 0.243124
186 3 0.471771 0.695741 0.769985
187 3 0.691904 0.637283 0.743921
188 3 0.794212 0.364424 0.310739
189 3 0.449208 0.855078 0.295717
190 3 0.539981 0.170883 0.746468
191 3 0.786922 0.149356 0.748475
192 3 0.708233 0.863199 0.204956
193 3 0.106684 0.550152 0.293534
194 3 0.886872 0.428305 0.644329
195 3 0.139952 0.421914 0.861887
196 3 0.367264 0.575195 0.160265
197 3 0.890592 0.0678363 0.191683
198 3 0.123548 0.918757 0.826249
199 3 0.378462 0.927772 0.620871
200 3 0.141317 0.074557 0.365226
201 3 0.616617 0.584688 0.318644
202 3 0.38133 0.481342 0.64564
203 3 0.625061 0.401947 0.890764
204 3 0.867012 0.603389 0.158947
205 3 0.377795 0.0697063 0.159499
206 3 0.615769 0.951412 0.866733
207 3 0.85584 0.908041 0.606685
208 3 0.624006 0.0686166 0.352947
209 3 0.0329932 0.362571 0.496705
210 3 0.994078 0.677532 0.491663
211 3 0.238931 0.643734 0.0144102
212 3 0.248579 0.340354 0.993669
213 3 0.998538 0.848651 0.971775
214 3 0.0201173 0.15405 0.98085
215 3 0.259524 0.167328 0.484245
216 3 0.247891 0.838036 0.498701
217 3 0.504671 0.384361 0.535061
218 3 0.498644 0.66233 0.479606
219 3 0.738012 0.615277 0.0232544
220 3 0.759736 0.324247 0.0274584
221 3 0.484076 0.855336 0.00175322
222 3 0.505642 0.127251 0.0343928
223 3 0.743946 0.119462 0.47566
224 3 0.734794 0.850368 0.504687
225 3 0.994508 0.422083 0.199025
226 3 0.00505093 0.580057 0.819473
227 3 0.247663 0.563366 0.701444
228 3 0.251662 0.410834 0.309131
229 3 0.00998149 0.915904 0.300508
230 3 0.00389242 0.0578193 0.672204
231 3 0.256893 0.0963188 0.803311
232 3 0.25728 0.889741 0.205316
233 3 0.483911 0.402973 0.217811
234 3 0.520809 0.629922 0.795282
235 3 0.740412 0.57476 0.704628
236 3 0.739389 0.401494 0.336716
237 3 0.491336 0.941082 0.326765
238 3 0.502703 0.0778576 0.713706
239 3 0.733284 0.105167 0.774903
240 3 0.754679 0.936367 0.17311
241 4 0.101427 0.617363 0.208286
242 4 0.881727 0.361622 0.730456
243 4 0.150064 0.352315 0.780488
244 4 0.365557 0.624611 0.258828
245 4 0.888825 0.109131 0.293257
246 4 0.116616 0.846843 0.744732
247 4 0.365036 0.854052 0.69818
248 4 0.146323 0.13735 0.275795
249 4 0.614657 0.639801 0.224133
250 4 0.381456 0.416042 0.734581
251 4 0.624407 0.341825 0.798843
252 4 0.865957 0.66954 0.248163
253 4 0.384051 0.135005 0.247524
254 4 0.611091 0.892647 0.774089
255 4 0.851423 0.842876 0.694591
256 4 0.628898 0.146138 0.276087
257 4 0.120101 0.588926 0.392985
258 4 0.877676 0.400161 0.538459
259 4 0.122362 0.384902 0.956975
260 4 0.376943 0.632829 0.0678879
261 4 0.870897 0.123092 0.108013
262 4 0.145903 0.889339 0.921239
263 4 0.391367 0.900571 0.518545
264 4 0.124312 0.11834 0.458977
265 4 0.638068 0.627698 0.407234
266 4 0.362456 0.443788 0.551828
267 4 0.611862 0.36717 0.992258
268 4 0.888118 0.634031 0.0657921
269 4 0.361337 0.10975 0.063261
270 4 0.627979 0.905544 0.963076
271 4 0.886607 0.875188 0.525539
272 4 0.601669 0.0962392 0.44654
273 4 0.986011 0.341864 0.51014
274 4 0.0384112 0.719628 0.507032
275 4 0.281081 0.697974 0.0159932
276 4 0.208521 0.280976 0.002952
277 4 0.0403648 0.792679 0.973755
278 4 0.976822 0.20321 0.972289
279 4 0.218212 0.221246 0.505092
280 4 0.287909 0.778127 0.485685
281 4 0.461375 0.335262 0.533384
282 4 0.545645 0.685374 0.500209
283 4 0.781522 0.641276 0.981405
284 4 0.722839 0.262209 0.0616624
285 4 0.5282 0.815597 0.0179533
286 4 0.457762 0.135839 0.0120353
287 4 0.702391 0.167218 0.50371
288 4 0.780936 0.818436 0.497122
289 4 0.0567536 0.412929 0.579115
290 4 0.982694 0.616592 0.40283
291 4 0.228148 0.574178 0.0937804
292 4 0.250021 0.419498 0.916841
293 4 0.990961 0.922044 0.891085
294 4 0.0286486 0.0876507 0.0650095
295 4 0.26196 0.0983496 0.399483
296 4 0.246241 0.902404 0.584362
297 4 0.516372 0.448789 0.620385
298 4 0.48608 0.604639 0.390457
299 4 0.734122 0.57857 0.128429
300 4 0.75836 0.363992 0.925601
301 4 0.473043 0.910813 0.908233
302 4 0.522676 0.0717588 0.121936
303 4 0.745397 0.0456633 0.394605
304 4 0.721363 0.893064 0.600853
305 4 0.948902 0.400537 0.2266
306 4 0.0496659 0.617498 0.806182
307 4 0.292689 0.590503 0.731284
308 4 0.2076 0.385668 0.269201
309 4 0.0560506 0.886253 0.292332
310 4 0.960016 0.0997784 0.685218
311 4 0.212929 0.137292 0.790052
312 4 0.299563 0.835541 0.220893
313 4 0.441783 0.360785 0.253739
314 4 0.56262 0.660695 0.745966
315 4 0.782475 0.628638 0.703221
316 4 0.700628 0.34445 0.300633
317 4 0.536607 0.901596 0.341327
318 4 0.455912 0.0832087 0.747448
319 4 0.694936 0.170187 0.763643
320 4 0.797038 0.88252 0.173418
321 4 0.00457 0.513369 0.14241
322 4 0.997935 0.47995 0.855912
323 4 0.236549 0.474464 0.641817
324 4 0.257396 0.500259 0.36976
325 4 0.998417 0.0123948 0.343025
326 4 0.0116602 0.954778 0.647549
327 4 0.262433 0.00825782 0.865481
328 4 0.257946 0.969209 0.130107
329 4 0.48455 0.47624 0.136571
330 4 0.520932 0.551581 0.869352
331 4 0.734186 0.487335 0.642734
332 4 0.73391 0.478754 0.410815
333 4 0.478844 0.0311217 0.378052
334 4 0.516365 0.989302 0.661277
335 4 0.730263 0.0102082 0.827719
336 4 0.750215 0.0288877 0.117713
ITEM: TIMESTEP
2000
ITEM: NUMBER OF ATOMS
336
ITEM: BOX BOUNDS xy xz yz pp pp pp
-3.8431970649883240e-01 2.6834449217622847e+01 2.7514395001493247e-02
1.1224275749140274e-01 1.1385998782986022e+01 5.8614795722715281e-02
-6.4454314289502346e-01 1.1353542776695017e+01 -7.5758818122583824e-02
ITEM: ATOMS id type xs ys zs
1 1 0.120244 0.351385 0.353629
2 1 0.895609 0.650423 0.579031
3 1 0.138276 0.692186 0.863284
4 1 0.359085 0.308452 0.0990653
5 1 0.89408 0.848173 0.0905999
6 1 0.121114 0.177925 0.880434
7 1 0.364465 0.179241 0.582449
8 1 0.129134 0.829134 0.383871
9 1 0.614705 0.340549 0.41505
10 1 0.388308 0.653784 0.578053
11 1 0.649151 0.697598 0.911221
12 1 0.848671 0.350535 0.0935227
13 1 0.396488 0.810576 0.0862886
14 1 0.613288 0.177261 0.934875
15 1 0.858897 0.154967 0.590457
16 1 0.641809 0.837651 0.422717
17 1 0.0349441 0.273256 0.30949
18 1 0.956618 0.695718 0.735422
19 1 0.219045 0.726399 0.761167
20 1 0.282394 0.262903 0.219358
21 1 0.96012 0.774574 0.230977
22 1 0.0378624 0.230451 0.778283
23 1 0.290784 0.24034 0.71498
24 1 0.203351 0.757341 0.277736
25 1 0.536703 0.245458 0.334706
26 1 0.461004 0.734761 0.700634
27 1 0.725444 0.725662 0.788328
28 1 0.77002 0.317928 0.210419
29 1 0.463377 0.768559 0.235362
30 1 0.543147 0.242194 0.810239
31 1 0.785137 0.214711 0.712076
32 1 0.715993 0.773007 0.302126
33 1 0.082985 0.406293 0.170691
34 1 0.880835 0.569636 0.778897
35 1 0.149528 0.604774 0.670616
36 1 0.354407 0.397974 0.297482
37 1 0.890529 0.92031 0.292218
38 1 0.110629 0.127013 0.677144
39 1 0.361608 0.11518 0.78839
40 1 0.142605 0.901948 0.180395
41 1 0.589525 0.393699 0.217181
42 1 0.393214 0.594666 0.787841
43 1 0.650071 0.611029 0.715952
44 1 0.845793 0.427483 0.298462
45 1 0.385094 0.89077 0.284694
46 1 0.61321 0.123037 0.722275
47 1 0.857305 0.0993648 0.799236
48 1 0.642517 0.879025 0.213993
49 2 0.143624 0.279633 0.336522
50 2 0.870217 0.729593 0.575738
51 2 0.117341 0.776258 0.846761
52 2 0.386532 0.239821 0.11784
53 2 0.865231 0.779332 0.0768597
54 2 0.144046 0.258517 0.871044
55 2 0.386351 0.261381 0.592061
56 2 0.0983269 0.763459 0.374774
57 2 0.638365 0.269771 0.386921
58 2 0.360189 0.723139 0.574656
59 2 0.625022 0.777627 0.906271
60 2 0.875536 0.277393 0.0920038
61 2 0.375055 0.728766 0.0844059
62 2 0.635283 0.259012 0.93051
63 2 0.888855 0.2049 0.548736
64 2 0.611847 0.772968 0.442225
65 2 0.135864 0.392954 0.42604
66 2 0.896115 0.61896 0.490519
67 2 0.125348 0.662823 0.946603
68 2 0.36848 0.32582 0.00963559
69 2 0.896987 0.883721 0.00328197
70 2 0.131325 0.135934 0.95988
71 2 0.374592 0.147724 0.495751
72 2 0.127791 0.871695 0.470395
73 2 0.632624 0.367289 0.492495
74 2 0.38671 0.604758 0.497612
75 2 0.641555 0.663798 0.995327
76 2 0.858118 0.390871 0.0121829
77 2 0.400326 0.837004 0.997937
78 2 0.621215 0.147387 0.021617
79 2 0.849785 0.0924026 0.523744
80 2 0.640536 0.897909 0.498536
81 2 5.55109e-05 0.271807 0.354559
82 2 0.995876 0.685711 0.750516
83 2 0.258932 0.720018 0.773782
84 2 0.243273 0.267272 0.205778
85 2 0.00108422 0.767135 0.223605
86 2 0.000142337 0.205725 0.791371
87 2 0.249734 0.240755 0.712978
88 2 0.242967 0.740593 0.282616
89 2 0.497575 0.228716 0.349426
90 2 0.501904 0.728602 0.692422
91 2 0.763967 0.708114 0.797207
92 2 0.733244 0.35285 0.188264
93 2 0.503737 0.777165 0.238031
94 2 0.502457 0.252228 0.811445
95 2 0.749416 0.179394 0.689243
96 2 0.756154 0.761145 0.307722
97 2 0.0375433 0.176937 0.287224
98 2 0.951807 0.789714 0.766081
99 2 0.211974 0.815335 0.733869
100 2 0.292748 0.181581 0.253791
101 2 0.95233 0.686897 0.267461
102 2 0.0352722 0.327423 0.760514
103 2 0.303154 0.326476 0.746158
104 2 0.189291 0.674296 0.240215
105 2 0.552444 0.156755 0.320561
106 2 0.457641 0.828509 0.725986
107 2 0.725463 0.816739 0.757596
108 2 0.761434 0.231133 0.247393
109 2 0.456559 0.67823 0.266289
110 2 0.555819 0.332518 0.783159
111 2 0.775416 0.300919 0.750291
112 2 0.70122 0.682578 0.27412
113 2 0.101069 0.354684 0.106835
114 2 0.855538 0.621036 0.829304
115 2 0.127043 0.673112 0.622024
116 2 0.376818 0.340816 0.351442
117 2 0.865646 0.855954 0.339774
118 2 0.130416 0.206032 0.645025
119 2 0.387021 0.18132 0.822272
120 2 0.117042 0.844609 0.139055
121 2 0.613253 0.346136 0.158508
122 2 0.362484 0.642383 0.831334
123 2 0.627194 0.670553 0.665073
124 2 0.867517 0.359769 0.339426
125 2 0.361802 0.820323 0.317182
126 2 0.638041 0.191125 0.689807
127 2 0.880715 0.16203 0.84665
128 2 0.622729 0.797134 0.186785
129 2 0.0754922 0.495283 0.135108
130 2 0.874063 0.474356 0.801316
131 2 0.147741 0.524274 0.620611
132 2 0.358919 0.481924 0.341091
133 2 0.886448 0.00901622 0.33276
134 2 0.115845 0.0529772 0.617298
135 2 0.370252 0.0340617 0.834987
136 2 0.146895 0.988254 0.132127
137 2 0.580361 0.477884 0.177339
138 2 0.396205 0.507418 0.832488
139 2 0.644754 0.521517 0.678153
140 2 0.852726 0.508327 0.345612
141 2 0.372189 0.973027 0.325147
142 2 0.617652 0.0417504 0.672793
143 2 0.863769 0.0133434 0.839016
144 2 0.633644 0.955044 0.161504
145 3 0.122116 0.435322 0.255064
146 3 0.869082 0.56553 0.655271
147 3 0.121489 0.601574 0.77757
148 3 0.37677 0.401795 0.182219
149 3 0.87354 0.933313 0.174459
150 3 0.134358 0.0944968 0.786135
151 3 0.381771 0.0954942 0.670519
152 3 0.117456 0.916771 0.29141
153 3 0.617325 0.427482 0.322785
154 3 0.373634 0.572395 0.671397
155 3 0.626398 0.611124 0.830218
156 3 0.867993 0.434991 0.185884
157 3 0.371172 0.896638 0.163113
158 3 0.6333 0.101127 0.838667
159 3 0.880889 0.0859528 0.687373
160 3 0.620354 0.907263 0.327313
161 3 0.0728709 0.297488 0.39651
162 3 0.94486 0.696153 0.611371
163 3 0.191934 0.725216 0.873155
164 3 0.306229 0.262733 0.106821
165 3 0.941751 0.780914 0.112653
166 3 0.0688732 0.223683 0.884122
167 3 0.31213 0.224579 0.597019
168 3 0.177416 0.763037 0.388194
169 3 0.567037 0.274324 0.436592
170 3 0.435875 0.722728 0.588187
171 3 0.701908 0.733764 0.902141
172 3 0.797404 0.299237 0.10104
173 3 0.445989 0.76122 0.115514
174 3 0.563407 0.232843 0.926452
175 3 0.810808 0.221674 0.601717
176 3 0.692106 0.781462 0.414799
177 3 0.0357941 0.346259 0.204611
178 3 0.931506 0.606988 0.812081
179 3 0.202649 0.647821 0.668195
180 3 0.3009 0.355586 0.30057
181 3 0.941543 0.866954 0.311013
182 3 0.0562998 0.1599 0.679124
183 3 0.308978 0.15957 0.804112
184 3 0.191996 0.842722 0.181876
185 3 0.545435 0.31347 0.229039
186 3 0.441518 0.660808 0.795536
187 3 0.704063 0.640732 0.703314
188 3 0.791925 0.389702 0.303147
189 3 0.438076 0.853591 0.313824
190 3 0.561094 0.17095 0.712973
191 3 0.804045 0.136425 0.805531
192 3 0.696374 0.843907 0.207563
193 3 0.11093 0.563128 0.299143
194 3 0.877423 0.435356 0.618947
195 3 0.125738 0.476329 0.830662
196 3 0.372036 0.527532 0.13194
197 3 0.878726 0.0654896 0.133727
198 3 0.126302 0.961995 0.817732
199 3 0.374547 0.96887 0.625143
200 3 0.118858 0.0443525 0.340736
201 3 0.608723 0.562343 0.351344
202 3 0.383123 0.441607 0.635533
203 3 0.624456 0.485472 0.879272
204 3 0.871553 0.567476 0.153659
205 3 0.375283 0.0280185 0.123879
206 3 0.631206 0.969154 0.868754
207 3 0.881257 0.953178 0.656159
208 3 0.62752 0.0399023 0.353192
209 3 0.0518425 0.371054 0.495568
210 3 0.98654 0.648968 0.533934
211 3 0.216918 0.647571 0.962315
212 3 0.270686 0.320399 0.0234541
213 3 0.981826 0.828411 0.0319124
214 3 0.0426574 0.163329 0.981989
215 3 0.277256 0.163603 0.515232
216 3 0.210201 0.825103 0.476147
217 3 0.539137 0.338878 0.531908
218 3 0.47405 0.67084 0.507851