LAMMPS data file via write_data, version 15 Apr 2020, timestep = 80000

336 atoms
4 atom types

3.8907028587320980e-02 2.6325093291812649e+01 xlo xhi
1.6456733268287316e-01 1.1409433025916691e+01 ylo yhi
-7.9342705389106705e-01 1.1502426687691074e+01 zlo zhi
-1.2962522841120855e-01 3.5436686442255350e-01 -1.9800218480988346e-01 xy xz yz

Masses

1 12.0107
2 1.00794
3 14.0067
4 15.9994

Atoms # full

1 1 1 -3.2975672674307649e-01 3.2927049738893412e+00 3.5468812001851688e+00 4.2302452309489658e+00 0 0 0
2 1 1 -3.2106822560754572e-01 2.3468121990822741e+01 7.6797675993634540e+00 7.0191420255465768e+00 0 0 0
3 1 1 -3.3016413850625542e-01 4.1653244966906362e+00 7.8229337101513696e+00 1.0292993630412580e+01 0 0 0
4 1 1 -3.3214178076710388e-01 9.3970180730767563e+00 3.6227046938485548e+00 -4.0540377727817961e-01 0 0 0
5 1 1 -3.2598350817760879e-01 2.3697927310989822e+01 9.1837428305746514e+00 6.9835120677121432e-01 0 0 0
6 1 1 -3.3119601888931638e-01 3.5120595697146344e+00 1.9943554993784767e+00 1.0292257227700182e+01 0 0 0
7 1 1 -3.3243313841124339e-01 9.8558420195863921e+00 2.4847998457857350e+00 6.0560397300421203e+00 0 0 0
8 1 1 -3.3867447205562956e-01 4.4845099370838204e+00 9.0183220700766764e+00 4.3946441367085685e+00 0 0 0
9 1 1 -3.2757695309617524e-01 1.6439219676881596e+01 3.8552539868677402e+00 4.3540291415664498e+00 0 0 0
10 1 1 -3.2771198390004297e-01 1.0544657009160776e+01 8.2608684231863752e+00 6.4943886930780854e+00 0 0 0
11 1 1 -3.2547104396223903e-01 1.7285289742827175e+01 7.6441761378680582e+00 1.0440358812260287e+01 0 0 0
12 1 1 -3.3250819014236427e-01 2.3092711208647042e+01 3.7575386336418206e+00 8.6595251976040344e-02 0 0 0
13 1 1 -3.3005517282073304e-01 1.0450767915053440e+01 9.0844412676997788e+00 6.3979506784931917e-02 0 0 0
14 1 1 -3.3358217843896038e-01 1.6584866507744920e+01 1.9300130847758314e+00 1.0891225120433175e+01 0 0 0
15 1 1 -3.3150109462277805e-01 2.2911707001088125e+01 2.1077355810866276e+00 6.1336125055248747e+00 0 0 0
16 1 1 -3.2659671471069768e-01 1.7218276686940225e+01 9.1373371600457425e+00 4.4603397066629160e+00 0 0 0
17 1 1 -3.2887516266591882e-01 9.9727906030325786e-01 2.9382685855905351e+00 3.3273006196430153e+00 0 0 0
18 1 1 -3.2197470547948670e-01 2.5427691456943474e+01 8.3351599701676449e+00 8.5747783380709066e+00 0 0 0
19 1 1 -3.2338460319103396e-01 5.7246595522881929e+00 8.4907271326755520e+00 8.3082965150303369e+00 0 0 0
20 1 1 -3.1971687695337314e-01 7.3982965142631878e+00 2.4908392533309573e+00 6.9988850618967513e-01 0 0 0
21 1 1 -3.2188159902630525e-01 2.5567731441405101e+01 8.6803638977437210e+00 2.3667961871175796e+00 0 0 0
22 1 1 -3.2213943546672130e-01 1.2639368092149881e+00 3.1919589676620581e+00 9.7572061918550066e+00 0 0 0
23 1 1 -3.2188688848273878e-01 7.5251728814345293e+00 3.0510216286562164e+00 6.8655155467786022e+00 0 0 0
24 1 1 -3.2740754392217047e-01 5.9032157882415790e+00 8.5262692130291633e+00 2.2518043724048042e+00 0 0 0
25 1 1 -3.2693267724603342e-01 1.4192972789450346e+01 2.9080324054444731e+00 3.6567069500851614e+00 0 0 0
26 1 1 -3.2366747108165544e-01 1.2235994424558955e+01 8.7567349770019476e+00 8.3304655204706020e+00 0 0 0
27 1 1 -3.3373917204940373e-01 1.9027871449882859e+01 8.2804487551312622e+00 8.5543515593950890e+00 0 0 0
28 1 1 -3.2736152301350885e-01 2.0863887358880529e+01 2.6933679538599500e+00 8.1849532153183979e-01 0 0 0
29 1 1 -3.2342068588267120e-01 1.1824408492430033e+01 8.4149699120107915e+00 2.0543305394700986e+00 0 0 0
30 1 1 -3.2761740623963359e-01 1.4467747585183163e+01 3.0675791088357385e+00 1.0094182471590640e+01 0 0 0
31 1 1 -3.1888163814079229e-01 2.0599084790793878e+01 2.9213144503813142e+00 6.9121525101414862e+00 0 0 0
32 1 1 -3.1620058219560276e-01 1.8702217729408183e+01 8.3083879961333711e+00 2.5940210468993961e+00 0 0 0
33 1 1 -3.2611536634349880e-01 2.5162366224888242e+00 4.4189341620882949e+00 1.8949532517044307e+00 0 0 0
34 1 1 -3.3061198430949845e-01 2.3527272300544713e+01 6.7502986062697774e+00 9.3855490962211476e+00 0 0 0
35 1 1 -3.3297951594362302e-01 3.8252114261784680e+00 6.7916149378359298e+00 7.9501962684211023e+00 0 0 0
36 1 1 -3.2635031204911336e-01 8.9765064753970645e+00 3.9665437500985075e+00 2.1392658164517959e+00 0 0 0
37 1 1 -3.3073977968889079e-01 2.3653975246289807e+01 1.0319401512787397e+01 3.0307153837571015e+00 0 0 0
38 1 1 -3.2840755348286071e-01 2.1745439949730025e+00 1.3253682203587185e+00 8.1882230547389518e+00 0 0 0
39 1 1 -3.2702109159303627e-01 9.0932924604979792e+00 1.8428829507430593e+00 8.3921463590277448e+00 0 0 0
40 1 1 -3.2692993047554592e-01 3.8125272248792634e+00 9.8164352420336307e+00 2.0409420301688947e+00 0 0 0
41 1 1 -3.3594556609875936e-01 1.5431566264682191e+01 4.6126470044597587e+00 2.1686236088816742e+00 0 0 0
42 1 1 -3.2763252263539538e-01 1.0273199906052470e+01 7.1444093271457962e+00 8.7989395041163689e+00 0 0 0
43 1 1 -3.2742966441451155e-01 1.7099155629411865e+01 6.6395541664387157e+00 8.0436231968092589e+00 0 0 0
44 1 1 -3.2811356084917764e-01 2.2262661005677209e+01 4.0835193798407143e+00 2.5024421589149188e+00 0 0 0
45 1 1 -3.2893037900647082e-01 1.0317341972278498e+01 1.0432589247226831e+01 2.3824921964810137e+00 0 0 0
46 1 1 -3.3058884527070503e-01 1.5714989763542865e+01 1.3747947838139811e+00 8.5792454826048932e+00 0 0 0
47 1 1 -3.2470832387950371e-01 2.2075383989008799e+01 1.6462573292066585e+00 8.5381920292066216e+00 0 0 0
48 1 1 -3.2372170025560104e-01 1.6900400581146720e+01 1.0018945054638438e+01 1.9932077590377864e+00 0 0 0
49 1 2 2.7958841580597960e-01 3.9397315716137848e+00 2.7196392620521443e+00 3.8410322874291740e+00 0 0 0
50 1 2 2.6442804329461184e-01 2.2939099854992826e+01 8.6216405937545861e+00 7.2930047193144976e+00 0 0 0
51 1 2 2.6481462166327402e-01 3.4059639502040140e+00 8.6228402119335517e+00 1.0453677671543735e+01 0 0 0
52 1 2 2.6382149463015636e-01 1.0097294401540763e+01 2.7560396196967232e+00 -4.4680476725093854e-01 0 0 0
53 1 2 2.7755229988320412e-01 2.2913002606433562e+01 8.4173758130412502e+00 8.3038000617780217e-01 0 0 0
54 1 2 2.9505126994416275e-01 4.2327636868849190e+00 2.8035460068921476e+00 1.0074383803027056e+01 0 0 0
55 1 2 2.8434684004317756e-01 1.0352055743159113e+01 3.4336781922026289e+00 6.2342904444104388e+00 0 0 0
56 1 2 2.4497128001679000e-01 3.8850025790093241e+00 8.2790496490431913e+00 4.8979177280454644e+00 0 0 0
57 1 2 2.5471750470465016e-01 1.6987863247907125e+01 2.9772463848411732e+00 3.9415516093895926e+00 0 0 0
58 1 2 2.7646936531808852e-01 9.8745917596849555e+00 9.1460276898247255e+00 6.4636165543051511e+00 0 0 0
59 1 2 2.7356572333752999e-01 1.6495926004692741e+01 8.4524513589796122e+00 1.0389977623264214e+01 0 0 0
60 1 2 2.7326054266776262e-01 2.3725722087169860e+01 2.8475311311903315e+00 1.9506239890017119e-01 0 0 0
61 1 2 2.6515388938809503e-01 9.6962446134320235e+00 8.2245646850038003e+00 -1.0712376560669656e-01 0 0 0
62 1 2 2.6662636148943669e-01 1.7164739751887328e+01 2.8381458827259731e+00 1.0660385549434455e+01 0 0 0
63 1 2 2.6737719059998505e-01 2.3538384523623371e+01 2.9775288363743471e+00 6.2158227405910713e+00 0 0 0
64 1 2 2.6968157585012359e-01 1.6479360173419266e+01 8.3867949040495127e+00 4.7801849698270420e+00 0 0 0
65 1 2 2.4986617021907295e-01 3.7414773245064858e+00 3.8663783332505397e+00 5.1738694962629452e+00 0 0 0
66 1 2 2.6129650934734799e-01 2.3187480676634756e+01 7.4843528651375486e+00 5.9809068553297742e+00 0 0 0
67 1 2 2.4512235601035204e-01 4.4628484688324068e+00 7.4565088697128346e+00 1.1266610004219482e+01 0 0 -1
68 1 2 2.3235271333423624e-01 1.0040167114712137e+01 3.9972872341935513e+00 1.1038647927150866e+01 0 0 0
69 1 2 2.5324314481685412e-01 2.3709688509160699e+01 9.5151138220718838e+00 -3.4389062206437260e-01 0 0 1
70 1 2 2.7008024354786264e-01 3.9389454356964979e+00 1.4321013222616275e+00 1.1059049485564023e+01 0 0 -1
71 1 2 2.4402476802080786e-01 1.0274596291867454e+01 1.9767897476833931e+00 5.1881851340125076e+00 0 0 0
72 1 2 2.3633638627793493e-01 4.8492356044936153e+00 9.5725667165227595e+00 5.2281311483013386e+00 0 0 0
73 1 2 2.3335128619969417e-01 1.6999492177338496e+01 4.0304831487268817e+00 5.2603189287733798e+00 0 0 0
74 1 2 2.5450018360692922e-01 1.0534303110316500e+01 7.9396049319633626e+00 5.4289531801746733e+00 0 0 0
75 1 2 2.4758199951048326e-01 1.7328744726697167e+01 7.1951057917476477e+00 1.1493284387837578e+01 0 0 -1
76 1 2 2.4855394041623757e-01 2.3689813348770684e+01 4.0828374912568624e+00 1.1470439269993491e+01 0 0 0
77 1 2 2.3982598658191800e-01 1.1008337449624761e+01 9.3662198007273680e+00 1.1396210090324983e+01 0 0 0
78 1 2 2.3934097418981623e-01 1.6666060526445968e+01 1.6594185585710968e+00 -5.6429877369178938e-01 0 0 0
79 1 2 2.3314424242637094e-01 2.3392687013489049e+01 1.5353781712973953e+00 5.2928673657089949e+00 0 0 0
80 1 2 2.3628075720394917e-01 1.7412576398621834e+01 9.5539665886025755e+00 5.4353558192017122e+00 0 0 0
81 1 2 2.6609608389883466e-01 2.6291082526577068e+01 2.9922717254446884e+00 3.7680704870034081e+00 0 0 0
82 1 2 2.6371916494511571e-01 2.2920829962355713e-01 8.2823951402396716e+00 8.5243010029633961e+00 0 0 0
83 1 2 2.6643380413443468e-01 6.7916266827476957e+00 8.5837708613966335e+00 8.0407345246945638e+00 0 0 0
84 1 2 2.9039781107358287e-01 6.3701698679225798e+00 2.2635224367670381e+00 4.3084777750821179e-01 0 0 0
85 1 2 2.6494172020231949e-01 3.5538722296343783e-01 8.6164418174811903e+00 2.4268219702706579e+00 0 0 0
86 1 2 2.8552891264288388e-01 3.3213153075669311e-01 3.3184452506061528e+00 1.0269729730326798e+01 1 0 0
87 1 2 2.6913894918392617e-01 6.4937713181925849e+00 2.9900759040010372e+00 6.5449524902798935e+00 0 0 0
88 1 2 2.5608247954448460e-01 6.9003344467311951e+00 8.5176366976351421e+00 1.9101865607222157e+00 0 0 0
89 1 2 2.6325751730826363e-01 1.3237035092454677e+01 2.8338531968445109e+00 4.0988073281035398e+00 0 0 0
90 1 2 2.7309894246554883e-01 1.3307853439255314e+01 8.7933841217152349e+00 8.4421950295041448e+00 0 0 0
91 1 2 2.5319483671424442e-01 2.0093599577031405e+01 8.3367582792474177e+00 8.5287552153983270e+00 0 0 0
92 1 2 2.6238769625089720e-01 1.9824195691814332e+01 2.6006997036279444e+00 5.5392246937342815e-01 0 0 0
93 1 2 2.6871553497472933e-01 1.2843383547359409e+01 8.0788683452848193e+00 2.3799059510596150e+00 0 0 0
94 1 2 2.4882970610940300e-01 1.3428713803645996e+01 3.3018427656122480e+00 1.0481574916918056e+01 0 0 0
95 1 2 2.5756742233763663e-01 1.9536729639654414e+01 2.8163353835437324e+00 6.5009214893967044e+00 0 0 0
96 1 2 2.7114226718502143e-01 1.9768767997853587e+01 8.0169466207731190e+00 2.4087544760685167e+00 0 0 0
97 1 2 2.6699522650634472e-01 1.0189350101111834e+00 2.0350582530276240e+00 2.7300289620865965e+00 0 0 0
98 1 2 2.6058340027224935e-01 2.5240441477056997e+01 9.3157899229521188e+00 9.1823189282605036e+00 0 0 0
99 1 2 2.3992223875805727e-01 5.3953851167484927e+00 9.4469276826151649e+00 7.9005022641450182e+00 0 0 0
100 1 2 2.6436834862675412e-01 7.8670107137844942e+00 1.5029730105113410e+00 9.7952414922455966e-01 0 0 0
101 1 2 2.7278951669089752e-01 2.5274859131095656e+01 7.7297708569580861e+00 2.8739347172781189e+00 0 0 0
102 1 2 2.6927386497818157e-01 1.4757543455461537e+00 4.2068918661792134e+00 9.3454723480349795e+00 0 0 0
103 1 2 2.6852041404582666e-01 7.7584266592476565e+00 4.1155246296354004e+00 7.1124968777375939e+00 0 0 0
104 1 2 2.3342882232584578e-01 5.5097167992045604e+00 7.6391282166756742e+00 1.7722761593397660e+00 0 0 0
105 1 2 2.7010087511561065e-01 1.4377378578879885e+01 1.8818098349436767e+00 3.3338694257803603e+00 0 0 0
106 1 2 2.5753664623782757e-01 1.1746712336056710e+01 9.6207901738189676e+00 8.7926385878103464e+00 0 0 0
107 1 2 2.3891178055395482e-01 1.8759706136796918e+01 9.3046684671337321e+00 8.3207723958587927e+00 0 0 0
108 1 2 2.5561104423363312e-01 2.1148158057058410e+01 1.6809701142736526e+00 1.0235748193191583e+00 0 0 0
109 1 2 2.5663905966048961e-01 1.1100986720469740e+01 7.6069111238572118e+00 2.2950922721662366e+00 0 0 0
110 1 2 2.5132320152080456e-01 1.4912931022248824e+01 4.0074575288597343e+00 9.8014207610962369e+00 0 0 0
111 1 2 2.5022912638345940e-01 2.0666745972752082e+01 3.9944991385607369e+00 7.1638132570586155e+00 0 0 0
112 1 2 2.5116821439783404e-01 1.8236586841409334e+01 7.3499943056799220e+00 2.3244052766781045e+00 0 0 0
113 1 2 2.5793359433538349e-01 3.0222957418681431e+00 3.5571972555578943e+00 1.4216302420504161e+00 0 0 0
114 1 2 2.5799061376875004e-01 2.2839469324445499e+01 7.3364125334400265e+00 9.9890680252753192e+00 0 0 0
115 1 2 2.4027123251371438e-01 2.9852027291829248e+00 7.2621139916744779e+00 7.4679299908752359e+00 0 0 0
116 1 2 2.4868374554382539e-01 9.6891267615156256e+00 3.3156058370402315e+00 2.6840444350905681e+00 0 0 0
117 1 2 2.7003499952969634e-01 2.2941884050659326e+01 9.8227209018119233e+00 3.6949518734773843e+00 0 0 0
118 1 2 2.4675629934104959e-01 2.5804181970479680e+00 1.7721550902061540e+00 7.2616681082874841e+00 0 0 0
119 1 2 2.2551057014832654e-01 9.5405287324895607e+00 2.6210238165196418e+00 9.0510237295951477e+00 0 0 0
120 1 2 2.3364130706458630e-01 3.1426801551652703e+00 9.0280379649637972e+00 1.6403593782262629e+00 0 0 0
121 1 2 2.2358873737643414e-01 1.5968102833586103e+01 4.2173733448332040e+00 1.3076593850398095e+00 0 0 0
122 1 2 2.4581927908396736e-01 9.4787914257136823e+00 7.8407253452020864e+00 9.1687886232932101e+00 0 0 0
123 1 2 2.4716830373306620e-01 1.6196490301195308e+01 7.0984055120122518e+00 7.5839764070126847e+00 0 0 0
124 1 2 2.3152069276829912e-01 2.2964778066492141e+01 3.4798726962627304e+00 3.0321528279340573e+00 0 0 0
125 1 2 2.4669436015970064e-01 9.5023634829594688e+00 1.0214702113176653e+01 3.0650994956560296e+00 0 0 0
126 1 2 2.3211972231671218e-01 1.6241686900021804e+01 1.9805449144860958e+00 7.8049262291019872e+00 0 0 0
127 1 2 2.4508831324783378e-01 2.2655145242154823e+01 2.4175117117254179e+00 9.1206618314031598e+00 0 0 0
128 1 2 2.6714637533761371e-01 1.6150199571864380e+01 9.2971562304403683e+00 1.7048447336517181e+00 0 0 0
129 1 2 2.4720736682134092e-01 2.5597258504693707e+00 5.3244318670129358e+00 1.2249843206302549e+00 0 0 0
130 1 2 2.7483670735564680e-01 2.3447595035342875e+01 5.7624407135422331e+00 9.9468102882359020e+00 0 0 0
131 1 2 2.6270078760644555e-01 3.8168270950134691e+00 5.7610787963155818e+00 7.5383251370143540e+00 0 0 0
132 1 2 2.5758334033066399e-01 8.8466051974382172e+00 4.9305154740118553e+00 2.7328638126917340e+00 0 0 0
133 1 2 2.5474617205099931e-01 2.3698701077874944e+01 1.1687511176025658e-01 3.3390947243439690e+00 0 1 0
134 1 2 2.5120893077743045e-01 1.8104317342708907e+00 3.5121980208757453e-01 7.8547744690229067e+00 0 0 0
135 1 2 2.5808753593511147e-01 9.0145168705386105e+00 9.4627942176768376e-01 9.0307442258980384e+00 0 0 0
136 1 2 2.6716460019539412e-01 3.4029262973305916e+00 1.0650731211526413e+01 1.4988244277619049e+00 0 0 0
137 1 2 2.4459834196439631e-01 1.5155830009447305e+01 5.5653151993540764e+00 1.7247598785574634e+00 0 0 0
138 1 2 2.6146900117794425e-01 1.0029785393520603e+01 6.1107889513184492e+00 9.1369991884473283e+00 0 0 0
139 1 2 2.6114933651786870e-01 1.7029062758868839e+01 5.6604165984202304e+00 7.6162779866833219e+00 0 0 0
140 1 2 2.4612215161540790e-01 2.2198954960191038e+01 4.9640145129787685e+00 3.1928886113350234e+00 0 0 0
141 1 2 2.6760588018440579e-01 1.0434016269158201e+01 2.4970387969870567e-01 2.6097258659512632e+00 0 1 0
142 1 2 2.5501747818883436e-01 1.5472879262283984e+01 4.7018822689057993e-01 8.0917126371395938e+00 0 0 0
143 1 2 2.4484603348519229e-01 2.1809185448960839e+01 9.1883055290032967e-01 9.2933812680955903e+00 0 0 0
144 1 2 2.7246580081189919e-01 1.6652472519803208e+01 1.0937648553512767e+01 1.4141031024776831e+00 0 0 0
145 1 3 1.8110931764125571e-01 3.3765624212044800e+00 4.5952515415415229e+00 3.1697319628245775e+00 0 0 0
146 1 3 1.8809258315209693e-01 2.3020419941335177e+01 6.5823972745280086e+00 7.9779096128716436e+00 0 0 0
147 1 3 1.7660852911229891e-01 3.4985992901824319e+00 6.7821842242572519e+00 9.4280849200193018e+00 0 0 0
148 1 3 1.8144948001998956e-01 9.6410989594193932e+00 4.3998671654463886e+00 8.4619358214168727e-01 0 0 0
149 1 3 1.8365699093670862e-01 2.3143914203554594e+01 1.0279130377317669e+01 1.5767595546374951e+00 0 0 0
150 1 3 1.8125050623046937e-01 3.3618030549226012e+00 1.0980916278680355e+00 9.1081320012956777e+00 0 0 0
151 1 3 1.8676839881861090e-01 1.0074942589695135e+01 1.6086043742531435e+00 7.2851265841799773e+00 0 0 0
152 1 3 1.8916101508037142e-01 3.5902033078473101e+00 9.8552702490989468e+00 3.5241800998912156e+00 0 0 0
153 1 3 1.7090810157428094e-01 1.6488111273123618e+01 4.8321889136187837e+00 3.2404796411779744e+00 0 0 0
154 1 3 1.7975683064369072e-01 9.8740663646486144e+00 7.2015075326936788e+00 7.3230457619660339e+00 0 0 0
155 1 3 1.6946757657662920e-01 1.6714427167469079e+01 6.6255632229833621e+00 9.5160129111139558e+00 0 0 0
156 1 3 1.7677501114870647e-01 2.3192511998403070e+01 4.5214731037017044e+00 1.3478716680173939e+00 0 0 0
157 1 3 1.7283240298046559e-01 9.8647924515520540e+00 1.0171574566458776e+01 9.2311282486066304e-01 0 0 0
158 1 3 1.7913800062359145e-01 1.6711888291219164e+01 1.0783137036256922e+00 9.6699060111596573e+00 0 0 0
159 1 3 1.8998292511779885e-01 2.3043437239578186e+01 1.3179934490571092e+00 7.3979729745979395e+00 0 0 0
160 1 3 1.9399052053473187e-01 1.6588273303617520e+01 1.0106595768248622e+01 3.4676807814268047e+00 0 0 0
161 1 3 1.7689431396111774e-01 1.9311666118302457e+00 2.9483160096392593e+00 4.4831071096282002e+00 0 0 0
162 1 3 1.8120243443705658e-01 2.4807096998705042e+01 8.3413846305948294e+00 7.2249727115608042e+00 0 0 0
163 1 3 1.8242006259342719e-01 5.4058962650851203e+00 8.5148420786329471e+00 9.7986185474845282e+00 0 0 0
164 1 3 1.5359220224504344e-01 8.0776471776142991e+00 2.9163275272481437e+00 -5.9762010494209439e-01 0 0 0
165 1 3 1.9237709948809859e-01 2.5073799319835452e+01 8.5785426974770544e+00 9.7014547730876033e-01 0 0 0
166 1 3 1.8271447999445564e-01 2.3666092957564895e+00 2.8581706863006540e+00 1.0721569672408719e+01 0 0 0
167 1 3 1.6504818637167948e-01 8.4586837991700694e+00 2.8630789349242560e+00 5.6844039650705414e+00 0 0 0
168 1 3 1.7531939400548044e-01 5.6820988694245127e+00 8.4007229756538919e+00 3.7531877510620451e+00 0 0 0
169 1 3 1.6021158011343506e-01 1.5151742247645831e+01 3.2136426962681255e+00 4.8022071685055510e+00 0 0 0
170 1 3 1.8261901813458825e-01 1.1886193085837926e+01 8.7843059031174029e+00 6.8504554237465269e+00 0 0 0
171 1 3 1.7078678226147628e-01 1.8599334230747008e+01 8.2150253365043699e+00 1.0053376235389633e+01 0 0 0
172 1 3 1.4856666254205397e-01 2.1728982141562053e+01 3.1804348630194186e+00 -3.0774457892847545e-01 0 0 0
173 1 3 1.7695943132781797e-01 1.1691677862817530e+01 8.3966642038944155e+00 5.5868557730272861e-01 0 0 0
174 1 3 1.5554981436979878e-01 1.5237369529360922e+01 2.5213677970282129e+00 1.1264331896980293e+01 0 0 0
175 1 3 1.6302122637013247e-01 2.1525077441317887e+01 2.6554456773391113e+00 5.7933625786309513e+00 0 0 0
176 1 3 1.7194999701302491e-01 1.8527439527876730e+01 8.5032621645692821e+00 4.0761366039887506e+00 0 0 0
177 1 3 1.6981210265396141e-01 1.1396699014762506e+00 3.9662304175201757e+00 2.1784288059154706e+00 0 0 0
178 1 3 1.6802203307744704e-01 2.4893285009325933e+01 7.3200328592331783e+00 9.6038328806734263e+00 0 0 0
179 1 3 1.5770115537551388e-01 5.0926829496967736e+00 7.4428597468760902e+00 7.4530428323922813e+00 0 0 0
180 1 3 1.8474359141876412e-01 7.6832665387072403e+00 3.2400638566582627e+00 1.9860197561746022e+00 0 0 0
181 1 3 1.7362133908881122e-01 2.4981080094724099e+01 9.7491073080992479e+00 3.3241920677634278e+00 0 0 0
182 1 3 1.9097736799937881e-01 1.0317500208886368e+00 2.2240433075390493e+00 8.6083769335974605e+00 0 0 0
183 1 3 1.7312749120616774e-01 7.6675771619132238e+00 2.2959829563711360e+00 8.1398718495847930e+00 0 0 0
184 1 3 1.6294367182301295e-01 5.1644881273900536e+00 9.5327365904416634e+00 1.4209131509761534e+00 0 0 0
185 1 3 1.7846393114418227e-01 1.4238955294479288e+01 3.7137590583435864e+00 2.4159751053718517e+00 0 0 0
186 1 3 1.5559649419912980e-01 1.1614841714351488e+01 7.6720141982723762e+00 9.2065702155685685e+00 0 0 0
187 1 3 1.6143935830066181e-01 1.8391513430177497e+01 7.3715392756898908e+00 7.6053157543841490e+00 0 0 0
188 1 3 1.8761559271879916e-01 2.0954986234548020e+01 3.4669788590360970e+00 2.1222364998917844e+00 0 0 0
189 1 3 1.7419354825974137e-01 1.1509097170401065e+01 9.6341615031591026e+00 2.8292296052326522e+00 0 0 0
190 1 3 1.7777715243071765e-01 1.4461435348379183e+01 2.1767769490686018e+00 8.8969394181278840e+00 0 0 0
191 1 3 1.6946350478852573e-01 2.0747444153900506e+01 2.2174302591093489e+00 8.2562896194546500e+00 0 0 0
192 1 3 1.8482487525540800e-01 1.8186836399687831e+01 9.3680937354476601e+00 1.6552445520419887e+00 0 0 0
193 1 3 3.1542449167585074e-01 3.2189975437265934e+00 6.0120508007882707e+00 3.7479415172403003e+00 0 0 0
194 1 3 3.2404339063674392e-01 2.3457107320722407e+01 5.1968587070972312e+00 7.4692095247651800e+00 0 0 0
195 1 3 3.1016265770103096e-01 3.6603575985488059e+00 5.3618322126990829e+00 9.9972318815630459e+00 0 0 0
196 1 3 3.1086394923767940e-01 9.5406722628514622e+00 5.9340585323786090e+00 6.1168531786697788e-01 0 0 0
197 1 3 3.0751894427559973e-01 2.3467070457423816e+01 3.6026672459645942e-01 8.5076483680777581e-01 0 0 0
198 1 3 3.1304545783230431e-01 3.2260660323848263e+00 1.0854324313545128e+01 9.5449349103164050e+00 0 0 0
199 1 3 3.0757924039745954e-01 1.0097722031279989e+01 1.2228635099221766e-01 6.8824252437507978e+00 0 1 0
200 1 3 3.3316340636756281e-01 3.5530760876723133e+00 1.1332027275961860e+01 3.9628940761232867e+00 0 -1 0
201 1 3 3.0997306008281256e-01 1.6424777009085741e+01 6.2866074975825033e+00 3.7620938112023206e+00 0 0 0
202 1 3 3.2544835042301573e-01 1.0057038930312382e+01 5.8232132293208876e+00 6.6986895801098925e+00 0 0 0
203 1 3 2.9905029453885612e-01 1.6824012645960128e+01 5.2257513122487307e+00 1.0138174760328976e+01 0 0 0
204 1 3 3.1909375447007016e-01 2.3049416013241309e+01 6.0374586709310902e+00 1.0372656528521083e+00 0 0 0
205 1 3 3.1017319858512965e-01 9.9331455419154455e+00 2.7849790450392281e-01 2.1453713688885001e-01 0 0 0
206 1 3 3.2343324475959201e-01 1.6448052370666939e+01 1.0836994563863447e+01 1.0067400555090600e+01 0 0 0
207 1 3 3.2200118494994878e-01 2.2897532517937822e+01 1.1066291651923120e+01 7.0478879609055509e+00 0 0 0
208 1 3 3.1758704547132377e-01 1.6544493835427254e+01 2.9208162117755693e-01 3.9871122469147862e+00 0 0 0
209 1 3 3.1850951081318007e-01 1.2672242627429842e+00 3.6150101554338736e+00 5.7189105110112743e+00 0 0 0
210 1 3 3.3458470825359421e-01 2.5856312616199595e+01 7.9219984884204395e+00 6.1522829603660822e+00 0 0 0
211 1 3 3.2339805221945983e-01 6.6081645719157462e+00 8.1304823313842558e+00 1.0664575465256743e+01 0 0 -1
212 1 3 3.1303194393452277e-01 7.4079953667728056e+00 3.4552997568855202e+00 1.0852162387812026e+01 0 0 0
213 1 3 3.3238134338884273e-01 2.6153577828844384e+01 9.0306437069246410e+00 -1.0574068672184800e-02 0 0 1
214 1 3 3.1250832098105497e-01 1.3882815241938613e+00 2.3783940105522117e+00 -3.0912213686290718e-01 0 0 0
215 1 3 3.1604153613127872e-01 7.9645804383336527e+00 1.8656989581708754e+00 4.6078626162324472e+00 0 0 0
216 1 3 3.2153423066758630e-01 6.9596536994305431e+00 8.7159790264599515e+00 4.5304885694473720e+00 0 0 0
217 1 3 3.2351089380929987e-01 1.4472737351015340e+01 4.0230078313414062e+00 5.9396349363376082e+00 0 0 0
218 1 3 3.2984046032647790e-01 1.2954922121547661e+01 8.1221733356630441e+00 5.9644621766501658e+00 0 0 0
219 1 3 3.3204692861786972e-01 1.9727640963081008e+01 7.6308745295852960e+00 1.0937272914126497e+01 0 0 -1
220 1 3 3.0768796029979573e-01 2.1307887117747466e+01 3.8479273799618547e+00 1.1002684464117406e+01 0 0 0
221 1 3 3.3650357217985383e-01 1.2912523593295267e+01 9.1444795378752417e+00 -5.5114571792827860e-02 0 0 1
222 1 3 3.2789814703666603e-01 1.3968779616765634e+01 1.8139025129248143e+00 -1.5691648004518965e-01 0 0 0
223 1 3 3.2225255917974954e-01 2.0858030848287175e+01 1.8605859519510175e+00 4.6304747268840725e+00 0 0 0
224 1 3 3.2267221628564219e-01 1.9758497565308907e+01 9.1999868605350947e+00 4.7021585494178932e+00 0 0 0
225 1 3 3.2032879358146271e-01 2.6281173619086996e+01 4.9867167510514738e+00 2.3181506902610001e+00 0 0 0
226 1 3 3.2577763084075384e-01 2.5941223948765082e+01 6.2165430404417394e+00 9.7863552677541197e+00 -1 0 0
227 1 3 3.2480953668386681e-01 6.1145603673303839e+00 6.2998672485135936e+00 7.2234253142639364e+00 0 0 0
228 1 3 3.2891729037322442e-01 6.4145929394932573e+00 4.1051193819521963e+00 2.2813397469002052e+00 0 0 0
229 1 3 3.2077903289028059e-01 2.5971219778276787e+01 1.0930449209632974e+01 3.4859807267168303e+00 -1 0 0
230 1 3 3.3005199516161143e-01 2.6071611245410757e+01 1.3702195598072222e+00 8.8767152352472767e+00 0 0 0
231 1 3 3.1776804260371161e-01 6.7139304687669661e+00 1.0969935123223016e+00 8.0595798371213121e+00 0 0 0
232 1 3 3.2597849952650099e-01 5.9608785211685182e+00 1.0849836740388225e+01 1.3384115006723203e+00 0 0 0
233 1 3 3.3045949884386311e-01 1.2942748727849464e+01 4.5477413899218595e+00 2.2765840963531869e+00 0 0 0
234 1 3 3.2682464103254816e-01 1.2600890600083019e+01 6.5219690147618676e+00 9.4155754603581769e+00 0 0 0
235 1 3 3.1390850008337762e-01 1.9441805439633434e+01 6.3592498121567091e+00 7.1115497086692061e+00 0 0 0
236 1 3 3.2187683332890876e-01 1.9787814488407392e+01 4.5008911170147181e+00 2.1881050773768145e+00 0 0 0
237 1 3 3.4003256216667194e-01 1.2736442329221894e+01 1.0579507784967729e+01 2.8269413142464885e+00 0 0 0
238 1 3 3.2929916179521201e-01 1.3187588366380538e+01 1.2840314068598311e+00 8.9381685494566501e+00 0 0 0
239 1 3 3.1606923007536569e-01 1.9664933782253723e+01 1.1198279960583524e+00 8.3791797631253555e+00 0 0 0
240 1 3 3.3901676770371875e-01 1.9323298159036518e+01 1.0385295455458657e+01 1.3133131660043138e+00 0 0 0
241 1 4 -3.4702626332556086e-01 2.7534247680746073e+00 7.0333242363762718e+00 3.0787213606628829e+00 0 0 0
242 1 4 -3.4284890930993939e-01 2.3602486133772167e+01 4.1179639653038409e+00 8.1356697507749391e+00 0 0 0
243 1 4 -3.6018811556495445e-01 3.8765590689671243e+00 4.3117760400984864e+00 9.2604480964022144e+00 0 0 0
244 1 4 -3.6050958630116781e-01 9.2758625112754807e+00 6.6568631602191832e+00 1.6273425605067593e+00 0 0 0
245 1 4 -3.6926270527199695e-01 2.3711848954494620e+01 1.4599217177001842e+00 1.4784427060760126e+00 0 0 0
246 1 4 -3.6178182997838304e-01 2.8090915143628390e+00 9.9569996552823135e+00 8.7297554174093577e+00 0 0 0
247 1 4 -3.6432002145690789e-01 9.6155522838238703e+00 1.0460256124423058e+01 7.7078355517252728e+00 0 0 0
248 1 4 -3.3083384375528113e-01 3.8878412593809131e+00 1.0188154249916588e+00 3.1235387192365542e+00 0 0 0
249 1 4 -3.7073939449731608e-01 1.6126635542783259e+01 7.2159146816247093e+00 2.9427423108432871e+00 0 0 0
250 1 4 -3.6645877910581914e-01 9.9996720938380079e+00 4.7352816133866789e+00 7.3887208222487946e+00 0 0 0
251 1 4 -3.7085228683681082e-01 1.7165213336183996e+01 4.1799715222788985e+00 9.4463763183426508e+00 0 0 0
252 1 4 -3.4718335541484263e-01 2.2602275068729156e+01 6.8604001346012167e+00 1.9086892592463709e+00 0 0 0
253 1 4 -3.5740762776194002e-01 1.0215637168212588e+01 1.3699799050790364e+00 8.1900595685990263e-01 0 0 0
254 1 4 -3.5552614539545552e-01 1.6019847293460590e+01 1.0022551563728344e+01 9.1833330242692188e+00 0 0 0
255 1 4 -3.6413224632764607e-01 2.2642525753691569e+01 1.0229942897145371e+01 7.9812537599948534e+00 0 0 0
256 1 4 -3.6361395522854378e-01 1.6448372665000342e+01 1.1950613758441135e+00 3.0820017648469000e+00 0 0 0
257 1 4 -3.5830399637886362e-01 3.6235355585213913e+00 6.1998799901295412e+00 4.9274158813331459e+00 0 0 0
258 1 4 -3.2813413384176848e-01 2.3513022905005446e+01 5.0797878797127529e+00 6.1857165691467788e+00 0 0 0
259 1 4 -3.5307818169964988e-01 3.6824032702992908e+00 5.2117678408816142e+00 1.1264311280161367e+01 0 0 0
260 1 4 -3.7228286524711318e-01 9.8342135941977595e+00 6.4950788751745829e+00 -4.8767401751610018e-01 0 0 0
261 1 4 -3.3649000971357912e-01 2.3477152778724861e+01 2.6200336288294901e-01 -4.3850572172186136e-01 0 0 0
262 1 4 -3.5939708295635803e-01 3.7289874137150751e+00 1.0607884378748080e+01 1.0683473581591814e+01 0 0 0
263 1 4 -3.6093193697580361e-01 1.0523791451344405e+01 1.1035748541099853e+01 5.7740558894942797e+00 0 0 0
264 1 4 -3.3753051277240287e-01 3.4977946683387939e+00 3.6767496376833109e-01 5.2005515652654477e+00 0 0 0
265 1 4 -3.6093983566582449e-01 1.6653513728699721e+01 6.5120223053645043e+00 4.9894110229738038e+00 0 0 0
266 1 4 -3.2190889790229621e-01 1.0110112007217118e+01 5.6855352900022718e+00 5.4125168931540575e+00 0 0 0
267 1 4 -3.6849387219817215e-01 1.6670543626570453e+01 5.1343200581028743e+00 1.1412431065970209e+01 0 0 0
268 1 4 -3.6067090040706717e-01 2.3464807868651164e+01 6.4841557682382103e+00 -9.4309006573420118e-02 0 0 0
269 1 4 -3.4900895997095505e-01 1.0047846573557919e+01 9.6138863328992324e-02 1.1243299370505273e+01 0 0 -1
270 1 4 -3.4007039558090396e-01 1.6753501148088564e+01 1.0390443445734450e+01 1.1224672140397869e+01 0 0 0
271 1 4 -3.5680551720263554e-01 2.3232639234165688e+01 1.0674691035657586e+01 5.8615975895024528e+00 0 0 0
272 1 4 -3.3559525112808675e-01 1.6645681006365404e+01 5.4779310489559141e-01 5.2784952310209512e+00 0 0 0
273 1 4 -3.0835358345015940e-01 2.6286675328114079e+01 3.6668747272345334e+00 5.8165718634161721e+00 0 0 0
274 1 4 -3.3209146533051226e-01 8.0451740446770237e-01 8.2139543651851419e+00 6.2912052510936283e+00 0 0 0
275 1 4 -3.4564029694790588e-01 7.7726674586235012e+00 8.4276560460216459e+00 1.0239040705807241e+01 0 0 -1
276 1 4 -3.4336132534393704e-01 6.1861798223694304e+00 3.0494999605961466e+00 1.0795343728781761e+01 0 0 0
277 1 4 -3.4045979284620098e-01 1.0933886045355681e+00 8.9306078735349725e+00 3.2556308485654228e-01 0 0 1
278 1 4 -3.3426443381178744e-01 1.3056181724538435e-01 2.6202647022302004e+00 -5.2151867806093155e-02 1 0 0
279 1 4 -3.0519199352475651e-01 6.6634114310571562e+00 1.7481778304436533e+00 4.5047492157273439e+00 0 0 0