ITEM: TIMESTEP
0
ITEM: NUMBER OF ATOMS
448
ITEM: BOX BOUNDS xy xz yz pp pp pp
-2.4186686450000000e-01 1.3879200000000001e+01 8.1284706647000001e-16
0.0000000000000000e+00 1.3274800000000003e+01 -2.4186686450000000e-01
0.0000000000000000e+00 2.2679910358299999e+01 1.4036330231000001e-15
ITEM: ATOMS id type xs ys zs
1 1 0.344067 0.120013 0.263921
2 2 0.245378 0.126528 0.25575
3 3 0.220942 0.153766 0.2165
4 3 0.20117 0.0993761 0.287023
5 2 0.401878 0.150496 0.218192
6 3 0.474628 0.148712 0.225634
7 3 0.368883 0.174082 0.180504
8 1 0.383504 0.0856134 0.318292
9 2 0.319246 0.0638126 0.369558
10 4 0.350111 0.0848291 0.421981
11 4 0.234615 0.0282245 0.356918
12 2 0.489038 0.0728022 0.329309
13 4 0.514821 0.0286997 0.37783
14 4 0.545969 0.10335 0.288294
15 1 0.405933 0.370013 0.486079
16 2 0.504622 0.376528 0.49425
17 3 0.529058 0.403766 0.5335
18 3 0.54883 0.349376 0.462977
19 2 0.348122 0.400496 0.531808
20 3 0.275372 0.398712 0.524366
21 3 0.381117 0.424082 0.569496
22 1 0.366496 0.335613 0.431708
23 2 0.430754 0.313813 0.380442
24 4 0.399889 0.334829 0.328019
25 4 0.515385 0.278224 0.393082
26 2 0.260962 0.322802 0.420691
27 4 0.235179 0.2787 0.37217
28 4 0.204031 0.35335 0.461706
29 1 0.155933 0.379987 0.236079
30 2 0.254622 0.373472 0.24425
31 3 0.279058 0.346234 0.2835
32 3 0.29883 0.400624 0.212977
33 2 0.0981223 0.349504 0.281808
34 3 0.025372 0.351288 0.274366
35 3 0.131117 0.325918 0.319496
36 1 0.116496 0.414387 0.181708
37 2 0.180754 0.436187 0.130442
38 4 0.149889 0.415171 0.0780188
39 4 0.265385 0.471776 0.143082
40 2 0.0109619 0.427198 0.170691
41 4 0.985179 0.4713 0.12217
42 4 0.954031 0.39665 0.211706
43 1 0.0940671 0.129987 0.0139205
44 2 0.995378 0.123472 0.0057503
45 3 0.970942 0.096234 0.9665
46 3 0.95117 0.150624 0.0370226
47 2 0.151878 0.0995036 0.968192
48 3 0.224628 0.101288 0.975634
49 3 0.118883 0.0759183 0.930504
50 1 0.133504 0.164387 0.068292
51 2 0.0692464 0.186187 0.119558
52 4 0.100111 0.165171 0.171981
53 4 0.984615 0.221776 0.106918
54 2 0.239038 0.177198 0.079309
55 4 0.264821 0.2213 0.12783
56 4 0.295969 0.14665 0.038294
57 1 0.844067 0.120013 0.263921
58 2 0.745378 0.126528 0.25575
59 3 0.720942 0.153766 0.2165
60 3 0.70117 0.0993761 0.287023
61 2 0.901878 0.150496 0.218192
62 3 0.974628 0.148712 0.225634
63 3 0.868883 0.174082 0.180504
64 1 0.883504 0.0856134 0.318292
65 2 0.819246 0.0638126 0.369558
66 4 0.850111 0.0848291 0.421981
67 4 0.734615 0.0282245 0.356918
68 2 0.989038 0.0728022 0.329309
69 4 0.0148213 0.0286997 0.37783
70 4 0.0459694 0.10335 0.288294
71 1 0.905933 0.370013 0.486079
72 2 0.00462216 0.376528 0.49425
73 3 0.0290576 0.403766 0.5335
74 3 0.0488305 0.349376 0.462977
75 2 0.848122 0.400496 0.531808
76 3 0.775372 0.398712 0.524366
77 3 0.881117 0.424082 0.569496
78 1 0.866496 0.335613 0.431708
79 2 0.930754 0.313813 0.380442
80 4 0.899889 0.334829 0.328019
81 4 0.0153849 0.278224 0.393082
82 2 0.760962 0.322802 0.420691
83 4 0.735179 0.2787 0.37217
84 4 0.704031 0.35335 0.461706
85 1 0.655933 0.379987 0.236079
86 2 0.754622 0.373472 0.24425
87 3 0.779058 0.346234 0.2835
88 3 0.79883 0.400624 0.212977
89 2 0.598122 0.349504 0.281808
90 3 0.525372 0.351288 0.274366
91 3 0.631117 0.325918 0.319496
92 1 0.616496 0.414387 0.181708
93 2 0.680754 0.436187 0.130442
94 4 0.649889 0.415171 0.0780188
95 4 0.765385 0.471776 0.143082
96 2 0.510962 0.427198 0.170691
97 4 0.485179 0.4713 0.12217
98 4 0.454031 0.39665 0.211706
99 1 0.594067 0.129987 0.0139205
100 2 0.495378 0.123472 0.0057503
101 3 0.470942 0.096234 0.9665
102 3 0.45117 0.150624 0.0370226
103 2 0.651878 0.0995036 0.968192
104 3 0.724628 0.101288 0.975634
105 3 0.618883 0.0759183 0.930504
106 1 0.633504 0.164387 0.068292
107 2 0.569246 0.186187 0.119558
108 4 0.600111 0.165171 0.171981
109 4 0.484615 0.221776 0.106918
110 2 0.739038 0.177198 0.079309
111 4 0.764821 0.2213 0.12783
112 4 0.795969 0.14665 0.038294
113 1 0.344067 0.620013 0.263921
114 2 0.245378 0.626528 0.25575
115 3 0.220942 0.653766 0.2165
116 3 0.20117 0.599376 0.287023
117 2 0.401878 0.650496 0.218192
118 3 0.474628 0.648712 0.225634
119 3 0.368883 0.674082 0.180504
120 1 0.383504 0.585613 0.318292
121 2 0.319246 0.563813 0.369558
122 4 0.350111 0.584829 0.421981
123 4 0.234615 0.528224 0.356918
124 2 0.489038 0.572802 0.329309
125 4 0.514821 0.5287 0.37783
126 4 0.545969 0.60335 0.288294
127 1 0.405933 0.870013 0.486079
128 2 0.504622 0.876528 0.49425
129 3 0.529058 0.903766 0.5335
130 3 0.54883 0.849376 0.462977
131 2 0.348122 0.900496 0.531808
132 3 0.275372 0.898712 0.524366
133 3 0.381117 0.924082 0.569496
134 1 0.366496 0.835613 0.431708
135 2 0.430754 0.813813 0.380442
136 4 0.399889 0.834829 0.328019
137 4 0.515385 0.778224 0.393082
138 2 0.260962 0.822802 0.420691
139 4 0.235179 0.7787 0.37217
140 4 0.204031 0.85335 0.461706
141 1 0.155933 0.879987 0.236079
142 2 0.254622 0.873472 0.24425
143 3 0.279058 0.846234 0.2835
144 3 0.29883 0.900624 0.212977
145 2 0.0981223 0.849504 0.281808
146 3 0.025372 0.851288 0.274366
147 3 0.131117 0.825918 0.319496
148 1 0.116496 0.914387 0.181708
149 2 0.180754 0.936187 0.130442
150 4 0.149889 0.915171 0.0780188
151 4 0.265385 0.971776 0.143082
152 2 0.0109619 0.927198 0.170691
153 4 0.985179 0.9713 0.12217
154 4 0.954031 0.89665 0.211706
155 1 0.0940671 0.629987 0.0139205
156 2 0.995378 0.623472 0.0057503
157 3 0.970942 0.596234 0.9665
158 3 0.95117 0.650624 0.0370226
159 2 0.151878 0.599504 0.968192
160 3 0.224628 0.601288 0.975634
161 3 0.118883 0.575918 0.930504
162 1 0.133504 0.664387 0.068292
163 2 0.0692464 0.686187 0.119558
164 4 0.100111 0.665171 0.171981
165 4 0.984615 0.721776 0.106918
166 2 0.239038 0.677198 0.079309
167 4 0.264821 0.7213 0.12783
168 4 0.295969 0.64665 0.038294
169 1 0.844067 0.620013 0.263921
170 2 0.745378 0.626528 0.25575
171 3 0.720942 0.653766 0.2165
172 3 0.70117 0.599376 0.287023
173 2 0.901878 0.650496 0.218192
174 3 0.974628 0.648712 0.225634
175 3 0.868883 0.674082 0.180504
176 1 0.883504 0.585613 0.318292
177 2 0.819246 0.563813 0.369558
178 4 0.850111 0.584829 0.421981
179 4 0.734615 0.528224 0.356918
180 2 0.989038 0.572802 0.329309
181 4 0.0148213 0.5287 0.37783
182 4 0.0459694 0.60335 0.288294
183 1 0.905933 0.870013 0.486079
184 2 0.00462216 0.876528 0.49425
185 3 0.0290576 0.903766 0.5335
186 3 0.0488305 0.849376 0.462977
187 2 0.848122 0.900496 0.531808
188 3 0.775372 0.898712 0.524366
189 3 0.881117 0.924082 0.569496
190 1 0.866496 0.835613 0.431708
191 2 0.930754 0.813813 0.380442
192 4 0.899889 0.834829 0.328019
193 4 0.0153849 0.778224 0.393082
194 2 0.760962 0.822802 0.420691
195 4 0.735179 0.7787 0.37217
196 4 0.704031 0.85335 0.461706
197 1 0.655933 0.879987 0.236079
198 2 0.754622 0.873472 0.24425
199 3 0.779058 0.846234 0.2835
200 3 0.79883 0.900624 0.212977
201 2 0.598122 0.849504 0.281808
202 3 0.525372 0.851288 0.274366
203 3 0.631117 0.825918 0.319496
204 1 0.616496 0.914387 0.181708
205 2 0.680754 0.936187 0.130442
206 4 0.649889 0.915171 0.0780188
207 4 0.765385 0.971776 0.143082
208 2 0.510962 0.927198 0.170691
209 4 0.485179 0.9713 0.12217
210 4 0.454031 0.89665 0.211706
211 1 0.594067 0.629987 0.0139205
212 2 0.495378 0.623472 0.0057503
213 3 0.470942 0.596234 0.9665
214 3 0.45117 0.650624 0.0370226
215 2 0.651878 0.599504 0.968192
216 3 0.724628 0.601288 0.975634
217 3 0.618883 0.575918 0.930504
218 1 0.633504 0.664387 0.068292
219 2 0.569246 0.686187 0.119558
220 4 0.600111 0.665171 0.171981
221 4 0.484615 0.721776 0.106918
222 2 0.739038 0.677198 0.079309
223 4 0.764821 0.7213 0.12783
224 4 0.795969 0.64665 0.038294
225 1 0.344067 0.120013 0.763921
226 2 0.245378 0.126528 0.75575
227 3 0.220942 0.153766 0.7165
228 3 0.20117 0.0993761 0.787023
229 2 0.401878 0.150496 0.718192
230 3 0.474628 0.148712 0.725634
231 3 0.368883 0.174082 0.680504
232 1 0.383504 0.0856134 0.818292
233 2 0.319246 0.0638126 0.869558
234 4 0.350111 0.0848291 0.921981
235 4 0.234615 0.0282245 0.856918
236 2 0.489038 0.0728022 0.829309
237 4 0.514821 0.0286997 0.87783
238 4 0.545969 0.10335 0.788294
239 1 0.405932 0.37001 0.986081
240 2 0.50462 0.376527 0.99425
241 3 0.529059 0.403766 0.0335003
242 3 0.548829 0.349377 0.962977
243 2 0.348123 0.400496 0.0318081
244 3 0.275372 0.398712 0.0243659
245 3 0.381116 0.424083 0.0694972
246 1 0.366504 0.335614 0.931709
247 2 0.430754 0.313814 0.880443
248 4 0.399892 0.334827 0.828023
249 4 0.515378 0.278227 0.89308
250 2 0.260966 0.322802 0.920692
251 4 0.235177 0.278698 0.872168
252 4 0.204028 0.353352 0.961708
253 1 0.155933 0.379987 0.736079
254 2 0.254622 0.373472 0.74425
255 3 0.279057 0.346234 0.7835
256 3 0.298831 0.400624 0.712977
257 2 0.0981223 0.349504 0.781808
258 3 0.025372 0.351288 0.774366
259 3 0.131117 0.325918 0.819496
260 1 0.116496 0.414387 0.681708
261 2 0.180754 0.436187 0.630442
262 4 0.149889 0.415171 0.578019
263 4 0.265385 0.471776 0.643082
264 2 0.0109619 0.427198 0.670691
265 4 0.985179 0.4713 0.62217
266 4 0.954031 0.39665 0.711706
267 1 0.0940671 0.129987 0.513921
268 2 0.995378 0.123472 0.50575
269 3 0.970942 0.096234 0.4665
270 3 0.95117 0.150624 0.537023
271 2 0.151878 0.0995036 0.468192
272 3 0.224628 0.101288 0.475634
273 3 0.118883 0.0759183 0.430504
274 1 0.133504 0.164387 0.568292
275 2 0.0692464 0.186187 0.619558
276 4 0.100111 0.165171 0.671981
277 4 0.984615 0.221776 0.606918
278 2 0.239038 0.177198 0.579309
279 4 0.264821 0.2213 0.62783
280 4 0.295969 0.14665 0.538294
281 1 0.844067 0.120013 0.763921
282 2 0.745378 0.126528 0.75575
283 3 0.720942 0.153766 0.7165
284 3 0.70117 0.0993761 0.787023
285 2 0.901878 0.150496 0.718192
286 3 0.974628 0.148712 0.725634
287 3 0.868883 0.174082 0.680504
288 1 0.883504 0.0856134 0.818292
289 2 0.819246 0.0638126 0.869558
290 4 0.850111 0.0848291 0.921981
291 4 0.734615 0.0282245 0.856918
292 2 0.989038 0.0728022 0.829309
293 4 0.0148213 0.0286997 0.87783
294 4 0.0459694 0.10335 0.788294
295 1 0.905933 0.370013 0.986079
296 2 0.00462216 0.376528 0.99425
297 3 0.0290576 0.403766 0.0334999
298 3 0.0488305 0.349376 0.962977
299 2 0.848122 0.400496 0.0318077
300 3 0.775372 0.398712 0.0243661
301 3 0.881117 0.424082 0.0694957
302 1 0.866496 0.335613 0.931708
303 2 0.930754 0.313813 0.880442
304 4 0.899889 0.334829 0.828019
305 4 0.0153849 0.278224 0.893082
306 2 0.760962 0.322802 0.920691
307 4 0.735179 0.2787 0.87217
308 4 0.704031 0.35335 0.961706
309 1 0.655933 0.379987 0.736079
310 2 0.754622 0.373472 0.74425
311 3 0.779058 0.346234 0.7835
312 3 0.79883 0.400624 0.712977
313 2 0.598122 0.349504 0.781808
314 3 0.525372 0.351288 0.774366
315 3 0.631117 0.325918 0.819496
316 1 0.616496 0.414387 0.681708
317 2 0.680754 0.436187 0.630442
318 4 0.649889 0.415171 0.578019
319 4 0.765385 0.471776 0.643082
320 2 0.510962 0.427198 0.670691
321 4 0.485179 0.4713 0.62217
322 4 0.454031 0.39665 0.711706
323 1 0.594067 0.129987 0.513921
324 2 0.495378 0.123472 0.50575
325 3 0.470942 0.096234 0.4665
326 3 0.45117 0.150624 0.537023
327 2 0.651878 0.0995036 0.468192
328 3 0.724628 0.101288 0.475634
329 3 0.618883 0.0759183 0.430504
330 1 0.633504 0.164387 0.568292
331 2 0.569246 0.186187 0.619558
332 4 0.600111 0.165171 0.671981
333 4 0.484615 0.221776 0.606918
334 2 0.739038 0.177198 0.579309
335 4 0.764821 0.2213 0.62783
336 4 0.795969 0.14665 0.538294
337 1 0.344067 0.620013 0.763921
338 2 0.245378 0.626528 0.75575
339 3 0.220942 0.653766 0.7165
340 3 0.20117 0.599376 0.787023
341 2 0.401878 0.650496 0.718192
342 3 0.474628 0.648712 0.725634
343 3 0.368883 0.674082 0.680504
344 1 0.383504 0.585613 0.818292
345 2 0.319246 0.563813 0.869558
346 4 0.350111 0.584829 0.921981
347 4 0.234615 0.528224 0.856918
348 2 0.489038 0.572802 0.829309
349 4 0.514821 0.5287 0.87783
350 4 0.545969 0.60335 0.788294
351 1 0.405932 0.87001 0.986081
352 2 0.50462 0.876527 0.99425
353 3 0.529059 0.903766 0.0335003
354 3 0.548829 0.849377 0.962977
355 2 0.348123 0.900496 0.0318081
356 3 0.275372 0.898712 0.0243659
357 3 0.381116 0.924083 0.0694972
358 1 0.366504 0.835614 0.931709
359 2 0.430754 0.813814 0.880443
360 4 0.399892 0.834827 0.828023
361 4 0.515378 0.778227 0.89308
362 2 0.260966 0.822802 0.920692
363 4 0.235177 0.778698 0.872168
364 4 0.204028 0.853352 0.961708
365 1 0.155933 0.879987 0.736079
366 2 0.254622 0.873472 0.74425
367 3 0.279057 0.846234 0.7835
368 3 0.298831 0.900624 0.712977
369 2 0.0981223 0.849504 0.781808
370 3 0.025372 0.851288 0.774366
371 3 0.131117 0.825918 0.819496
372 1 0.116496 0.914387 0.681708
373 2 0.180754 0.936187 0.630442
374 4 0.149889 0.915171 0.578019
375 4 0.265385 0.971776 0.643082
376 2 0.0109619 0.927198 0.670691
377 4 0.985179 0.9713 0.62217
378 4 0.954031 0.89665 0.711706
379 1 0.0940671 0.629987 0.513921
380 2 0.995378 0.623472 0.50575
381 3 0.970942 0.596234 0.4665
382 3 0.95117 0.650624 0.537023
383 2 0.151878 0.599504 0.468192
384 3 0.224628 0.601288 0.475634
385 3 0.118883 0.575918 0.430504
386 1 0.133504 0.664387 0.568292
387 2 0.0692464 0.686187 0.619558
388 4 0.100111 0.665171 0.671981
389 4 0.984615 0.721776 0.606918
390 2 0.239038 0.677198 0.579309
391 4 0.264821 0.7213 0.62783
392 4 0.295969 0.64665 0.538294
393 1 0.844067 0.620013 0.763921
394 2 0.745378 0.626528 0.75575
395 3 0.720942 0.653766 0.7165
396 3 0.70117 0.599376 0.787023
397 2 0.901878 0.650496 0.718192
398 3 0.974628 0.648712 0.725634
399 3 0.868883 0.674082 0.680504
400 1 0.883504 0.585613 0.818292
401 2 0.819246 0.563813 0.869558
402 4 0.850111 0.584829 0.921981
403 4 0.734615 0.528224 0.856918
404 2 0.989038 0.572802 0.829309
405 4 0.0148213 0.5287 0.87783
406 4 0.0459694 0.60335 0.788294
407 1 0.905933 0.870013 0.986079
408 2 0.00462216 0.876528 0.99425
409 3 0.0290576 0.903766 0.0334999
410 3 0.0488305 0.849376 0.962977
411 2 0.848122 0.900496 0.0318077
412 3 0.775372 0.898712 0.0243661
413 3 0.881117 0.924082 0.0694957
414 1 0.866496 0.835613 0.931708
415 2 0.930754 0.813813 0.880442
416 4 0.899889 0.834829 0.828019
417 4 0.0153849 0.778224 0.893082
418 2 0.760962 0.822802 0.920691
419 4 0.735179 0.7787 0.87217
420 4 0.704031 0.85335 0.961706
421 1 0.655933 0.879987 0.736079
422 2 0.754622 0.873472 0.74425
423 3 0.779058 0.846234 0.7835
424 3 0.79883 0.900624 0.712977
425 2 0.598122 0.849504 0.781808
426 3 0.525372 0.851288 0.774366
427 3 0.631117 0.825918 0.819496
428 1 0.616496 0.914387 0.681708
429 2 0.680754 0.936187 0.630442
430 4 0.649889 0.915171 0.578019
431 4 0.765385 0.971776 0.643082
432 2 0.510962 0.927198 0.670691
433 4 0.485179 0.9713 0.62217
434 4 0.454031 0.89665 0.711706
435 1 0.594067 0.629987 0.513921
436 2 0.495378 0.623472 0.50575
437 3 0.470942 0.596234 0.4665
438 3 0.45117 0.650624 0.537023
439 2 0.651878 0.599504 0.468192
440 3 0.724628 0.601288 0.475634
441 3 0.618883 0.575918 0.430504
442 1 0.633504 0.664387 0.568292
443 2 0.569246 0.686187 0.619558
444 4 0.600111 0.665171 0.671981
445 4 0.484615 0.721776 0.606918
446 2 0.739038 0.677198 0.579309
447 4 0.764821 0.7213 0.62783
448 4 0.795969 0.64665 0.538294
ITEM: TIMESTEP
1000
ITEM: NUMBER OF ATOMS
448
ITEM: BOX BOUNDS xy xz yz pp pp pp
-1.2297370632822935e-01 1.3884505469094147e+01 1.5598819206263029e-01
2.8238126179671053e-01 1.2993896893480748e+01 -2.7365642929668221e-01
7.4714012019019371e-01 2.1932770238109779e+01 1.4781552775042326e-03
ITEM: ATOMS id type xs ys zs
1 1 0.352971 0.122111 0.257641
2 2 0.248852 0.135167 0.255342
3 3 0.227426 0.148259 0.209502
4 3 0.2109 0.0994283 0.293852
5 2 0.410835 0.166843 0.209993
6 3 0.485473 0.142241 0.217262
7 3 0.373482 0.229139 0.189024
8 1 0.394094 0.0661737 0.309899
9 2 0.330732 0.0150302 0.35935
10 4 0.364506 0.0205081 0.415504
11 4 0.251369 0.967651 0.342249
12 2 0.501193 0.0560905 0.315657
13 4 0.533305 0.00112721 0.363371
14 4 0.562263 0.0912393 0.273729
15 1 0.398445 0.364635 0.487299
16 2 0.499548 0.391551 0.488468
17 3 0.520876 0.409817 0.534792
18 3 0.539267 0.360482 0.447838
19 2 0.329317 0.396636 0.532312
20 3 0.256705 0.364231 0.529459
21 3 0.361187 0.45665 0.560951
22 1 0.358853 0.304802 0.437067
23 2 0.42396 0.274482 0.384165
24 4 0.396783 0.296598 0.327628
25 4 0.509034 0.230521 0.398141
26 2 0.249444 0.279381 0.426995
27 4 0.22483 0.227441 0.379252
28 4 0.187892 0.311861 0.469579
29 1 0.137825 0.363192 0.248494
30 2 0.241451 0.359071 0.260582
31 3 0.257286 0.323653 0.306187
32 3 0.289331 0.385658 0.220643
33 2 0.0791889 0.322474 0.297137
34 3 0.00271456 0.338985 0.291414
35 3 0.120252 0.316512 0.336893
36 1 0.100719 0.411988 0.193971
37 2 0.17253 0.432214 0.141993
38 4 0.130401 0.454166 0.0883979
39 4 0.266181 0.423725 0.145066
40 2 0.992865 0.425311 0.180676
41 4 0.964642 0.473516 0.130828
42 4 0.931593 0.387345 0.221706
43 1 0.0968067 0.11975 0.00537324
44 2 0.993703 0.10968 0.994002
45 3 0.974547 0.0845557 0.947559
46 3 0.954244 0.141249 0.0277919
47 2 0.160771 0.078495 0.959658
48 3 0.237391 0.082456 0.970317
49 3 0.118752 0.042989 0.922603
50 1 0.135633 0.171367 0.0593972
51 2 0.0706891 0.20604 0.112166
52 4 0.0996812 0.189927 0.169048
53 4 0.986765 0.247869 0.0945809
54 2 0.243831 0.176779 0.074284
55 4 0.27023 0.211386 0.129001
56 4 0.305028 0.134117 0.0353054
57 1 0.860406 0.125643 0.259164
58 2 0.762609 0.106662 0.245091
59 3 0.741397 0.142909 0.1993
60 3 0.729414 0.043461 0.281288
61 2 0.914792 0.197316 0.224127
62 3 0.985724 0.195277 0.245787
63 3 0.885455 0.216428 0.178652
64 1 0.903281 0.0773675 0.315353
65 2 0.836314 0.0576137 0.367369
66 4 0.878693 0.0572462 0.422581
67 4 0.743651 0.0445942 0.356586
68 2 0.0135311 0.0590645 0.321974
69 4 0.0351114 0.981415 0.357955
70 4 0.0720199 0.115647 0.289877
71 1 0.892441 0.386474 0.496543
72 2 0.993639 0.378464 0.509642
73 3 0.0136062 0.419445 0.553728
74 3 0.0363112 0.339611 0.473046
75 2 0.831487 0.438366 0.537083
76 3 0.759564 0.441324 0.520254
77 3 0.868808 0.468345 0.577533
78 1 0.851059 0.342205 0.440716
79 2 0.916144 0.300756 0.389349
80 4 0.87857 0.290132 0.334103
81 4 0.00980254 0.28944 0.400958
82 2 0.741185 0.333255 0.428457
83 4 0.72233 0.268084 0.384772
84 4 0.677969 0.383978 0.462343
85 1 0.638243 0.377912 0.243501
86 2 0.741026 0.377052 0.258264
87 3 0.753659 0.344873 0.304084
88 3 0.780109 0.428019 0.231286
89 2 0.573695 0.32847 0.28285
90 3 0.498469 0.33149 0.258997
91 3 0.614018 0.279345 0.317297
92 1 0.604811 0.429632 0.187559
93 2 0.679579 0.458283 0.137485
94 4 0.647365 0.482483 0.0824784
95 4 0.769993 0.469021 0.155078
96 2 0.500723 0.448724 0.172069
97 4 0.481511 0.513915 0.126595
98 4 0.434607 0.395796 0.202203
99 1 0.599214 0.129025 0.00253068
100 2 0.502314 0.0976753 0.00352758
101 3 0.476457 0.0676194 0.960436
102 3 0.470096 0.117008 0.0488802
103 2 0.658855 0.103516 0.951206
104 3 0.730953 0.133343 0.952409
105 3 0.620727 0.0485489 0.923388
106 1 0.640869 0.17811 0.0574509
107 2 0.574291 0.223186 0.108012
108 4 0.606917 0.209404 0.165245
109 4 0.496494 0.272037 0.09137
110 2 0.749167 0.182242 0.0654051
111 4 0.77602 0.223839 0.119102
112 4 0.810086 0.153679 0.0224297
113 1 0.3687 0.598377 0.260156
114 2 0.266716 0.604458 0.249625
115 3 0.251804 0.657748 0.210706
116 3 0.230601 0.580718 0.290635
117 2 0.433815 0.636899 0.216453
118 3 0.508679 0.627539 0.240937
119 3 0.405815 0.674968 0.177948
120 1 0.40287 0.554934 0.318747
121 2 0.333851 0.526027 0.371936
122 4 0.360848 0.554344 0.427412
123 4 0.256001 0.475142 0.359239
124 2 0.508413 0.550979 0.338189
125 4 0.524371 0.503418 0.39132
126 4 0.575461 0.594583 0.30489
127 1 0.398667 0.862617 0.496977
128 2 0.495686 0.894478 0.501383
129 3 0.503922 0.931213 0.544161
130 3 0.542095 0.876132 0.464901
131 2 0.335761 0.880997 0.551117
132 3 0.261901 0.852755 0.539861
133 3 0.35475 0.956713 0.564139
134 1 0.367268 0.812781 0.440374
135 2 0.433344 0.779135 0.388724
136 4 0.38775 0.768121 0.334979
137 4 0.527783 0.777203 0.395467
138 2 0.25792 0.784071 0.435789
139 4 0.229831 0.740993 0.384326
140 4 0.197725 0.80163 0.48034
141 1 0.137685 0.865575 0.243825
142 2 0.239661 0.842162 0.249764
143 3 0.250004 0.80663 0.295256
144 3 0.274885 0.874118 0.213717
145 2 0.0760757 0.82378 0.289404
146 3 0.996474 0.842938 0.284157
147 3 0.114332 0.762785 0.313331
148 1 0.101832 0.932125 0.193684
149 2 0.172127 0.971703 0.144257
150 4 0.136395 0.956577 0.0890859
151 4 0.254355 0.00940959 0.161871
152 2 0.995208 0.949277 0.183738
153 4 0.965634 0.00862836 0.13717
154 4 0.934736 0.912886 0.22467
155 1 0.125152 0.64566 0.999286
156 2 0.0240859 0.65082 0.984977
157 3 0.0143548 0.595269 0.947742
158 3 0.981907 0.682481 0.0242504
159 2 0.190656 0.602317 0.954357
160 3 0.265653 0.596497 0.972733
161 3 0.14778 0.566953 0.91599
162 1 0.163095 0.676927 0.0597717
163 2 0.090962 0.707679 0.111925
164 4 0.125014 0.699714 0.167399
165 4 0.998978 0.727612 0.0997879
166 2 0.270255 0.676059 0.0751214
167 4 0.296415 0.719693 0.126666
168 4 0.330714 0.626583 0.0385185
169 1 0.868469 0.612006 0.247179
170 2 0.766311 0.61714 0.234789
171 3 0.749962 0.624543 0.185848
172 3 0.723038 0.59537 0.273812
173 2 0.938061 0.654762 0.205488
174 3 0.0166355 0.644253 0.220088
175 3 0.905014 0.696399 0.168506
176 1 0.902179 0.569204 0.304313
177 2 0.830159 0.551163 0.357212
178 4 0.858551 0.589358 0.411923
179 4 0.753634 0.496728 0.346894
180 2 0.012025 0.560726 0.323743
181 4 0.0258562 0.52213 0.379652
182 4 0.0786221 0.603584 0.290326
183 1 0.890172 0.870823 0.487959
184 2 0.991081 0.863701 0.49863
185 3 0.00312581 0.880823 0.544346
186 3 0.0392676 0.816296 0.463037
187 2 0.82837 0.913497 0.534362
188 3 0.7485 0.908625 0.52032
189 3 0.860899 0.904211 0.579648
190 1 0.847713 0.832088 0.429761
191 2 0.91338 0.793935 0.379065
192 4 0.875948 0.77514 0.324688
193 4 0.00730713 0.776265 0.392406
194 2 0.740781 0.808319 0.424374
195 4 0.717949 0.743663 0.381175
196 4 0.681607 0.855897 0.463944
197 1 0.637628 0.872163 0.245718
198 2 0.737647 0.864705 0.258067
199 3 0.750095 0.821723 0.298257
200 3 0.780834 0.880788 0.218761
201 2 0.570337 0.826337 0.286545
202 3 0.496576 0.828106 0.266474
203 3 0.608524 0.784116 0.322756
204 1 0.597678 0.921683 0.190895
205 2 0.663105 0.960145 0.137894
206 4 0.62786 0.942756 0.0822483
207 4 0.744725 0.00277559 0.151141
208 2 0.491688 0.950423 0.179686
209 4 0.469515 0.00805349 0.132642
210 4 0.426946 0.901527 0.213073
211 1 0.619009 0.646061 0.00310287
212 2 0.515854 0.634993 0.996618
213 3 0.497048 0.610321 0.948213
214 3 0.47802 0.647921 0.0374485
215 2 0.683176 0.617606 0.953548
216 3 0.756654 0.62403 0.973815
217 3 0.64886 0.551024 0.933898
218 1 0.660621 0.687636 0.0597102
219 2 0.596098 0.715676 0.114603
220 4 0.616334 0.667927 0.166523
221 4 0.512559 0.764157 0.102161
222 2 0.768578 0.708406 0.0707415
223 4 0.792585 0.760187 0.120377
224 4 0.830588 0.668352 0.0311372
225 1 0.354521 0.122118 0.755003
226 2 0.251767 0.131503 0.740962
227 3 0.249018 0.163323 0.694822
228 3 0.211371 0.0812697 0.770705
229 2 0.42402 0.176114 0.720724
230 3 0.501647 0.167928 0.737867
231 3 0.383538 0.221582 0.688532
232 1 0.385973 0.0719187 0.811778
233 2 0.313493 0.0371884 0.862714
234 4 0.351837 0.0382879 0.91828
235 4 0.223796 0.0183306 0.848167
236 2 0.490237 0.0518616 0.826794
237 4 0.511276 0.988187 0.873247
238 4 0.557143 0.0913672 0.79026
239 1 0.399522 0.37639 0.991125
240 2 0.49798 0.398776 0.98589
241 3 0.540469 0.421577 0.0251916
242 3 0.529151 0.377694 0.941796
243 2 0.345458 0.417862 0.0434586
244 3 0.270434 0.389888 0.042478
245 3 0.392652 0.406965 0.0811661
246 1 0.352951 0.315716 0.943089
247 2 0.41508 0.275565 0.887617
248 4 0.385928 0.310509 0.832933
249 4 0.499754 0.240315 0.900606
250 2 0.245982 0.315887 0.936475
251 4 0.206014 0.270654 0.887862
252 4 0.190327 0.345077 0.98255
253 1 0.139958 0.370653 0.739827
254 2 0.237632 0.389432 0.761011
255 3 0.263602 0.359439 0.804913
256 3 0.271148 0.432082 0.721571
257 2 0.0731175 0.323007 0.779845
258 3 0.00197875 0.328672 0.762929
259 3 0.107297 0.326433 0.826742
260 1 0.104303 0.414417 0.6818
261 2 0.174122 0.445195 0.629228
262 4 0.13937 0.452416 0.573074
263 4 0.262613 0.465679 0.644551
264 2 0.998138 0.435873 0.673864
265 4 0.977244 0.508795 0.632723
266 4 0.932942 0.399435 0.711314
267 1 0.107938 0.100593 0.50922
268 2 0.00496656 0.0942202 0.501198
269 3 0.992864 0.0707094 0.45073
270 3 0.961396 0.125567 0.536274
271 2 0.164313 0.0469848 0.464716
272 3 0.243082 0.0502319 0.468642
273 3 0.121997 0.00371375 0.434811
274 1 0.149958 0.156155 0.560163
275 2 0.0886925 0.207464 0.610049
276 4 0.119099 0.19984 0.667715
277 4 0.00199312 0.240195 0.59329
278 2 0.260752 0.1717 0.565777
279 4 0.290645 0.229939 0.610685
280 4 0.312019 0.126487 0.522428
281 1 0.848602 0.135941 0.744375
282 2 0.746642 0.143787 0.737239
283 3 0.731613 0.184321 0.694458
284 3 0.708197 0.121169 0.776033
285 2 0.91511 0.169198 0.699454
286 3 0.99753 0.154864 0.714883
287 3 0.884803 0.196709 0.658214
288 1 0.887015 0.0781197 0.796427
289 2 0.820185 0.035127 0.848727
290 4 0.848894 0.0535723 0.905455
291 4 0.733922 0.00157396 0.837436
292 2 0.992398 0.0609658 0.812923
293 4 0.00925048 0.00607562 0.864436
294 4 0.0578055 0.0991323 0.777463
295 1 0.890289 0.37963 0.988796
296 2 0.988628 0.400304 0.997743
297 3 0.999062 0.435715 0.039183
298 3 0.0319329 0.382961 0.957713
299 2 0.821483 0.415677 0.0356975
300 3 0.745913 0.394904 0.0225506
301 3 0.861128 0.411418 0.0770766
302 1 0.851662 0.322727 0.93689
303 2 0.923163 0.277071 0.88896
304 4 0.898842 0.300367 0.831687
305 4 0.00420425 0.235865 0.908503
306 2 0.74433 0.31468 0.922458
307 4 0.721305 0.262299 0.8725
308 4 0.680623 0.350647 0.962354
309 1 0.636035 0.395985 0.742993
310 2 0.73616 0.377653 0.753586
311 3 0.759129 0.344915 0.79557
312 3 0.780178 0.393967 0.71389
313 2 0.569216 0.352092 0.784471
314 3 0.495337 0.375332 0.776108
315 3 0.606058 0.318014 0.823872
316 1 0.600758 0.445288 0.686673
317 2 0.668387 0.474134 0.634931
318 4 0.633098 0.466566 0.578744
319 4 0.755722 0.506595 0.651322
320 2 0.492059 0.463949 0.670985
321 4 0.470442 0.502325 0.616789
322 4 0.427334 0.436643 0.71096
323 1 0.616007 0.150437 0.504745
324 2 0.515333 0.126068 0.488695
325 3 0.510053 0.0888412 0.445557
326 3 0.471346 0.148521 0.528938
327 2 0.685611 0.109253 0.461296
328 3 0.76133 0.131702 0.471899
329 3 0.642032 0.105023 0.418942
330 1 0.648333 0.203621 0.559752
331 2 0.575999 0.241629 0.606982
332 4 0.598233 0.218017 0.664392
333 4 0.492684 0.281644 0.588882
334 2 0.755957 0.223442 0.570325
335 4 0.77615 0.287171 0.614895
336 4 0.824457 0.184148 0.534205
337 1 0.359828 0.618998 0.758828
338 2 0.256875 0.624559 0.746024
339 3 0.241579 0.638341 0.695278
340 3 0.211126 0.594319 0.78353
341 2 0.421455 0.666046 0.71384
342 3 0.496648 0.668835 0.730771
343 3 0.387262 0.67098 0.670364
344 1 0.402641 0.57272 0.812254
345 2 0.339304 0.533699 0.866452
346 4 0.376383 0.546577 0.922106
347 4 0.250861 0.506681 0.855128
348 2 0.512269 0.557734 0.817186
349 4 0.540605 0.498154 0.864102
350 4 0.571741 0.593696 0.777004
351 1 0.382569 0.874833 0.994521
352 2 0.482796 0.891965 0.00398269
353 3 0.500686 0.904921 0.0532439
354 3 0.523036 0.859196 0.970168
355 2 0.318328 0.910428 0.0423888
356 3 0.237009 0.914189 0.0269644
357 3 0.361433 0.93787 0.0827381
358 1 0.345704 0.825649 0.939966
359 2 0.406351 0.787391 0.882212
360 4 0.375137 0.794542 0.825765
361 4 0.49399 0.759922 0.89753
362 2 0.240024 0.816235 0.92921
363 4 0.214198 0.755884 0.883199
364 4 0.176167 0.857706 0.969115
365 1 0.13009 0.884972 0.74602
366 2 0.230455 0.86436 0.754075
367 3 0.240518 0.826802 0.798443
368 3 0.281932 0.890414 0.723216
369 2 0.067341 0.858087 0.795474
370 3 0.986387 0.857626 0.774314
371 3 0.100674 0.829857 0.834426
372 1 0.0941297 0.924172 0.687385
373 2 0.161487 0.950807 0.630327
374 4 0.131133 0.918328 0.576822
375 4 0.24343 0.991488 0.644392
376 2 0.989241 0.939078 0.670754
377 4 0.973003 0.988205 0.618821
378 4 0.926398 0.910433 0.713738
379 1 0.0992102 0.631069 0.512965
380 2 0.995714 0.633276 0.503724
381 3 0.991016 0.61283 0.45476
382 3 0.959254 0.669213 0.540382
383 2 0.159125 0.583661 0.465799
384 3 0.238733 0.584891 0.483063
385 3 0.130817 0.596451 0.419356
386 1 0.136809 0.670842 0.569739
387 2 0.0788484 0.715165 0.624177
388 4 0.111812 0.686648 0.679327
389 4 0.998707 0.763398 0.611437
390 2 0.247959 0.684188 0.578048
391 4 0.272397 0.739413 0.625699
392 4 0.309532 0.646161 0.538508
393 1 0.861373 0.625937 0.764407
394 2 0.759916 0.623754 0.757671
395 3 0.736295 0.662237 0.719668
396 3 0.725436 0.575972 0.796153
397 2 0.920513 0.666211 0.717767
398 3 0.992659 0.647274 0.72362
399 3 0.88352 0.686184 0.673855
400 1 0.905229 0.569567 0.817984
401 2 0.845467 0.542267 0.874976
402 4 0.886658 0.556723 0.928425
403 4 0.756675 0.508652 0.868687
404 2 0.00828841 0.537539 0.825315
405 4 0.0383569 0.493121 0.878094
406 4 0.0715277 0.564007 0.782739
407 1 0.893707 0.883565 0.995724
408 2 0.995178 0.898225 0.999751
409 3 0.0197401 0.912593 0.044835
410 3 0.034565 0.883773 0.955466
411 2 0.831196 0.909169 0.0443766
412 3 0.752831 0.89871 0.029158
413 3 0.866382 0.949675 0.0802859
414 1 0.847637 0.840948 0.940108
415 2 0.913629 0.802297 0.887138
416 4 0.876248 0.802726 0.831734
417 4 0.000328118 0.764808 0.900656
418 2 0.741656 0.818519 0.931359
419 4 0.720575 0.770436 0.878792
420 4 0.681098 0.839344 0.976304
421 1 0.636471 0.887138 0.743033
422 2 0.740416 0.874169 0.750726
423 3 0.754759 0.841543 0.795688
424 3 0.7807 0.926257 0.721278
425 2 0.574913 0.84167 0.785751
426 3 0.496832 0.853775 0.775427
427 3 0.602102 0.798119 0.823733
428 1 0.601776 0.944181 0.689187
429 2 0.671114 0.960542 0.633878
430 4 0.62858 0.976239 0.581463
431 4 0.765991 0.958144 0.643104
432 2 0.495903 0.965391 0.676781
433 4 0.472267 0.0113444 0.625218
434 4 0.434723 0.924734 0.717991
435 1 0.603062 0.645309 0.510799
436 2 0.503977 0.637651 0.502925
437 3 0.47895 0.607814 0.46049
438 3 0.463251 0.659602 0.543857
439 2 0.666039 0.611633 0.459568
440 3 0.740714 0.642485 0.470788
441 3 0.638287 0.546265 0.434923
442 1 0.647003 0.685845 0.56682
443 2 0.583319 0.719653 0.622258
444 4 0.627002 0.711618 0.674965
445 4 0.49259 0.750835 0.613079
446 2 0.753621 0.701748 0.572226
447 4 0.779986 0.743411 0.62623
448 4 0.816838 0.676411 0.529605
ITEM: TIMESTEP
2000
ITEM: NUMBER OF ATOMS
448
ITEM: BOX BOUNDS xy xz yz pp pp pp