LAMMPS data file via write_data, version 15 Apr 2020, timestep = 80000

448 atoms
4 atom types

2.0964910242127477e-01 1.3669550897578773e+01 xlo xhi
3.6842149686857972e-01 1.2906378503131808e+01 ylo yhi
6.3317717973260024e-01 2.2046733178567600e+01 zlo zhi
-8.1525397004044237e-02 -4.0002700235854782e-01 2.2037553689223724e-01 xy xz yz

Masses

1 12.0107
2 14.0067
3 1.00794
4 15.9994

Atoms # full

1 1 1 2.8737580891176767e-01 4.8425730592547103e+00 1.7001095884719963e+00 6.0354924828586904e+00 0 0 0
2 1 2 -4.5116304084592734e-01 3.4814786583466728e+00 1.8312944805637503e+00 5.7289741158683043e+00 0 0 0
3 1 3 3.8684219450846818e-01 3.2281081444250153e+00 2.1351448293973236e+00 4.7127415592952699e+00 0 0 0
4 1 3 3.5217286511830437e-01 2.9530446123113170e+00 1.3628301020275515e+00 6.5955058470975798e+00 0 0 0
5 1 2 -4.5417897234632887e-01 5.8159957279966905e+00 2.1834140003758691e+00 5.1781047078049536e+00 0 0 0
6 1 3 3.7947125315976721e-01 6.8077297319552947e+00 1.7731653381859751e+00 5.3931495990859100e+00 0 0 0
7 1 3 3.8089000427414466e-01 5.4643339349134354e+00 2.6000379712315675e+00 4.2997995834969149e+00 0 0 0
8 1 1 2.7622162798313522e-02 5.2579352650057638e+00 1.0730605043720818e+00 7.2379191996045966e+00 0 0 0
9 1 2 2.9131270207245147e-01 4.2508933797090078e+00 4.7409213238872011e-01 8.2498660059581290e+00 0 0 0
10 1 4 -3.3884802259206154e-01 4.4382312505630086e+00 8.4845716626272605e-01 9.4775118455690457e+00 0 0 0
11 1 4 -3.7577298089454658e-01 3.1830981247799732e+00 1.2316502096769607e+01 7.8587730388297761e+00 0 -1 0
12 1 2 2.9125145509548034e-01 6.6615047358239812e+00 9.4404793220575589e-01 7.6113384313841941e+00 0 0 0
13 1 4 -3.6006843735069122e-01 6.9526694630679042e+00 4.7117224346985120e-01 8.7526634460618862e+00 0 0 0
14 1 4 -3.7836697328310259e-01 7.6347388796155071e+00 1.2724077336298198e+00 6.7596473197947802e+00 0 0 0
15 1 1 2.9878456095948536e-01 5.3958262998841171e+00 5.1874020244098444e+00 1.0943489870921667e+01 0 0 0
16 1 2 -4.6083171012500601e-01 6.8055549274016975e+00 5.4582038523564220e+00 1.0968886261862883e+01 0 0 0
17 1 3 3.5305557441712726e-01 7.2659207491430653e+00 5.4567781517887806e+00 1.1960409872735662e+01 0 0 0
18 1 3 3.8133224983210962e-01 7.3580527941771621e+00 5.0515432153786000e+00 1.0150872288813060e+01 0 0 0
19 1 2 -4.4267616859984010e-01 4.5706855030432507e+00 5.5325848184129844e+00 1.1972896844465106e+01 0 0 0
20 1 3 3.8464958208052308e-01 3.5217715129936957e+00 5.1987078847414887e+00 1.1825576553655267e+01 0 0 0
21 1 3 3.6775638083145940e-01 5.1111667131661189e+00 5.9284664742242743e+00 1.2881550272518924e+01 0 0 0
22 1 1 3.0299738133514012e-02 4.9120135132733607e+00 4.3633395966528736e+00 9.9230557965318997e+00 0 0 0
23 1 2 2.8533364506133990e-01 5.8567116783784838e+00 3.7630571122722416e+00 8.8575708278932979e+00 0 0 0
24 1 4 -3.6270787483833289e-01 5.4794093120115486e+00 3.8754777412256529e+00 7.6400332743797401e+00 0 0 0
25 1 4 -3.9081302893629455e-01 6.9943166854896814e+00 3.3126327282006982e+00 9.2197312020412401e+00 0 0 0
26 1 2 2.9348044346473839e-01 3.4765528659404366e+00 4.0410677603190202e+00 9.7681231960890873e+00 0 0 0
27 1 4 -3.3565291515381301e-01 3.1091553277371431e+00 3.4386788478366896e+00 8.7149553071111292e+00 0 0 0
28 1 4 -3.8195957272725850e-01 2.5848664284194163e+00 4.4120867547939904e+00 1.0645759392823297e+01 0 0 0
29 1 1 2.8406539260932440e-01 2.1797432981097966e+00 5.2119239587370014e+00 5.8117915837185565e+00 0 0 0
30 1 2 -4.5683886950387548e-01 3.5586697389492072e+00 4.8966730120257269e+00 6.0043124351173551e+00 0 0 0
31 1 3 3.6465265077802805e-01 3.6604472708008062e+00 4.4147127207282288e+00 6.9253985504099367e+00 0 0 0
32 1 3 3.8218830594729081e-01 4.0895731353202436e+00 4.9876993337021105e+00 5.1200044185668210e+00 0 0 0
33 1 2 -4.4036178404699367e-01 1.2387933552018822e+00 4.8344534229782665e+00 6.7638214512704318e+00 0 0 0
34 1 3 3.8002342451911286e-01 2.1219805530600211e-01 4.9746359843129468e+00 6.5027250838366522e+00 0 0 0
35 1 3 3.8123567372948253e-01 1.7073863926122026e+00 4.4475599344992736e+00 7.6598753716180719e+00 0 0 0
36 1 1 4.5255475888720711e-02 1.8065449236349074e+00 5.9507941677780121e+00 4.6746821927972109e+00 0 0 0
37 1 2 2.6082470076675546e-01 2.8738264029479157e+00 6.3752629393884312e+00 3.7100450007744716e+00 0 0 0
38 1 4 -3.2918014067744217e-01 2.5576632339532641e+00 6.1476131762210180e+00 2.4764985750631423e+00 0 0 0
39 1 4 -4.0360110318731590e-01 3.9740359667594549e+00 6.8863001723296247e+00 4.1204808579209491e+00 0 0 0
40 1 2 3.0319754083291456e-01 3.0294521987579992e-01 5.9895528777520468e+00 4.2897596484632761e+00 0 0 0
41 1 4 -3.7325542511653353e-01 1.3539585071928808e+01 6.4534679810649092e+00 3.1273052858303738e+00 0 0 0
42 1 4 -3.9805453532412644e-01 1.2889726412296623e+01 5.4972051326945790e+00 5.0815199915043721e+00 0 0 0
43 1 1 2.8378593975944016e-01 1.6493969824333534e+00 1.8997007278727518e+00 7.0227561912493652e-01 0 0 0
44 1 2 -4.5200074300754234e-01 -1.1851791339394978e-01 1.8900394507576499e+00 2.1881638386883061e+01 1 0 -1
45 1 3 3.5925930399508882e-01 1.3199523866705492e+01 1.4934217726384003e+00 2.0902659522476633e+01 0 0 0
46 1 3 3.7026658119205835e-01 1.3242778194707865e+01 1.8801276437156913e+00 1.3872541099030635e+00 0 0 0
47 1 2 -4.6278312293599588e-01 2.1459200482406184e+00 1.5875010836692391e+00 2.1200878322228753e+01 0 0 0
48 1 3 3.8102341137318840e-01 3.1682805902239703e+00 1.9494084886981935e+00 2.1168735061348286e+01 0 0 0
49 1 3 3.6367078624831800e-01 1.6107718021788635e+00 1.2729638953097018e+00 2.0399596185178844e+01 0 0 0
50 1 1 3.1276963275176248e-02 2.1766617674606294e+00 2.5933225332716567e+00 1.8443272046727572e+00 0 0 0
51 1 2 2.8886592268207151e-01 1.3040648193974016e+00 3.1773369521677712e+00 2.9022977516254227e+00 0 0 0
52 1 4 -3.6861594788816410e-01 1.7587216904372429e+00 3.1327605084782086e+00 4.1287901160224578e+00 0 0 0
53 1 4 -4.1710250669681037e-01 1.6085659799275770e-01 3.6584824711072010e+00 2.5891865972850079e+00 1 0 0
54 1 2 2.9325549392096290e-01 3.6392345367885781e+00 2.7170055761499090e+00 2.0704849568437087e+00 0 0 0
55 1 4 -3.5266464344502052e-01 3.9427790279241304e+00 3.3122227351086151e+00 3.2094579953651756e+00 0 0 0
56 1 4 -3.6037357776119855e-01 4.4917669516952978e+00 2.2892878775682837e+00 1.2310596271118288e+00 0 0 0
57 1 1 2.9169500447763752e-01 1.1727164683029246e+01 2.0479958228119037e+00 6.1353742656989683e+00 0 0 0
58 1 2 -4.5747040037537789e-01 1.0339853554531274e+01 2.0655816744239202e+00 5.9151669066676389e+00 0 0 0
59 1 3 3.7600892315274698e-01 1.0227145941122416e+01 2.2621219067959992e+00 4.8719624095575096e+00 0 0 0
60 1 3 3.7788984937680276e-01 9.7171224903826143e+00 1.4208987025908515e+00 6.5695622076074436e+00 0 0 0
61 1 2 -4.7578154344160534e-01 1.2709824559553594e+01 2.4742865024195813e+00 5.2239320214547735e+00 0 0 0
62 1 3 3.7357426725379217e-01 1.9458930543412839e-01 2.3410651043201867e+00 5.5436920969878933e+00 1 0 0
63 1 3 3.7123080569317429e-01 1.2359482461365811e+01 2.8191937812804824e+00 4.2718288808800384e+00 0 0 0
64 1 1 2.7727961987743424e-02 1.2086905473677497e+01 1.5241711505904658e+00 7.4210037999358125e+00 0 0 0
65 1 2 2.8721106439272032e-01 1.1078707473488594e+01 1.4633099512588510e+00 8.5230804235656485e+00 0 0 0
66 1 4 -3.7593369197211463e-01 1.1456476026344800e+01 1.5423546633114897e+00 9.7439063157420946e+00 0 0 0
67 1 4 -3.5830028223673194e-01 9.8277939122846636e+00 1.2887438401846776e+00 8.2156489325547746e+00 0 0 0
68 1 2 2.8319240594765371e-01 7.2618343102109809e-02 1.2735138738832079e+00 7.7210807773308394e+00 1 0 0
69 1 4 -3.7553816143844138e-01 2.4244003546581916e-01 4.6618208207336576e-01 8.7287891389319245e+00 0 0 0
70 1 4 -3.9949695863725038e-01 1.0040259224412529e+00 1.6629382245672411e+00 6.9452215909270221e+00 0 0 0
71 1 1 2.9514589427843013e-01 1.2133239349334429e+01 5.2910310292161427e+00 1.1179354071152332e+01 0 0 0
72 1 2 -4.7964819350770910e-01 1.3423332995759241e+01 5.0387228814938076e+00 1.1525100873820177e+01 -1 0 0
73 1 3 3.8057748793819246e-01 2.7438035666307625e-01 5.4247246463027468e+00 1.2440085187552496e+01 0 0 0
74 1 3 3.7128569257412886e-01 4.8931901900589747e-01 4.5107199133379314e+00 1.0665944366880524e+01 0 0 0
75 1 2 -4.2354207011749834e-01 1.1260556596964351e+01 6.0456061585275140e+00 1.2004464539657169e+01 0 0 0
76 1 3 3.8679699919489691e-01 1.0337455223927309e+01 6.3072374546858052e+00 1.1540621887871541e+01 0 0 0
77 1 3 3.6622809686512592e-01 1.1524021214596655e+01 5.8669822865271772e+00 1.2997283062065343e+01 0 0 0
78 1 1 3.6443271472156619e-02 1.1583314404097001e+01 4.8393358110250766e+00 9.9221325925102413e+00 0 0 0
79 1 2 2.7656666943855257e-01 1.2527099667384515e+01 4.3969629044173768e+00 8.8578619282167601e+00 0 0 0
80 1 4 -3.8216728070746137e-01 1.2017318643690801e+01 4.2722711046008008e+00 7.6620789770474325e+00 0 0 0
81 1 4 -3.9312807582369896e-01 3.0954614518884005e-01 4.1778356414232487e+00 9.0942082519816498e+00 0 0 0
82 1 2 2.7196106571130757e-01 1.0102243163643900e+01 4.7463894797057815e+00 9.7756807143623163e+00 0 0 0
83 1 4 -3.6114077906445186e-01 9.7231644143031239e+00 3.8385006419737202e+00 8.9862681705557765e+00 0 0 0
84 1 4 -3.9702797817801777e-01 9.2928943696877990e+00 5.4085540368214646e+00 1.0582908176618769e+01 0 0 0
85 1 1 2.8570009237576699e-01 8.7790482312861879e+00 4.7408071146435118e+00 5.8483224311407911e+00 0 0 0
86 1 2 -4.8715487679891767e-01 1.0098268532858471e+01 4.8881861497655326e+00 6.2938367826435151e+00 0 0 0
87 1 3 3.7935055085883573e-01 1.0301484169642841e+01 4.3899125190366979e+00 7.1469155482417497e+00 0 0 0
88 1 3 3.7246175302765128e-01 1.0668635545962522e+01 5.4190167281360173e+00 5.5562799244805223e+00 0 0 0
89 1 2 -4.4393547096162711e-01 7.9411021056764124e+00 3.9656226540498252e+00 6.6298979369446789e+00 0 0 0
90 1 3 3.7719797745139794e-01 6.9236695848108827e+00 4.0854735241690570e+00 6.2745220376313489e+00 0 0 0
91 1 3 3.6649449147754731e-01 8.2934366839756919e+00 3.9283252731672151e+00 7.6009396862498049e+00 0 0 0
92 1 1 3.5057858544485496e-02 8.2509951079670412e+00 5.3410032650823513e+00 4.6384776561410312e+00 0 0 0
93 1 2 2.9365113188329844e-01 9.2303290940034053e+00 5.7353289925748392e+00 3.5628346836346827e+00 0 0 0
94 1 4 -3.8164370540511200e-01 8.7560467075430157e+00 5.8218495342910055e+00 2.3682620402627639e+00 0 0 0
95 1 4 -3.6438790535298449e-01 1.0454622768576838e+01 5.7604099359699035e+00 3.8867590578810196e+00 0 0 0
96 1 2 2.6035321950625062e-01 6.8240310470778178e+00 5.6402093410117962e+00 4.4416739541001693e+00 0 0 0
97 1 4 -3.4174806900533361e-01 6.5713278835165365e+00 6.6046017753307504e+00 3.6110463420627252e+00 0 0 0
98 1 4 -3.9383311533052323e-01 5.9369722777524556e+00 5.0123495434358025e+00 5.1453916308171639e+00 0 0 0
99 1 1 2.9797579219049491e-01 8.5813072877653607e+00 1.4801917496228967e+00 6.7167018871310935e-01 0 0 0
100 1 2 -4.6247734606330981e-01 6.8636709040395729e+00 2.0318771851874073e+00 2.1737131336239521e+01 0 0 -1
101 1 3 3.8007405499443037e-01 6.6403596237418165e+00 1.6910299797556354e+00 2.0751980248674286e+01 0 0 0
102 1 3 3.7904841773740972e-01 6.7656981769850875e+00 2.3734074712510926e+00 1.0734272084205987e+00 0 0 0
103 1 2 -4.4127877183857617e-01 8.9426165609719650e+00 8.7288900065500585e-01 2.1259756127361690e+01 0 0 0
104 1 3 3.7010015019978265e-01 9.9533477934273424e+00 8.5412325488903007e-01 2.1769332523681719e+01 0 0 0
105 1 3 3.8593220546578977e-01 8.6972295547828260e+00 7.8152937405329537e-01 2.0259032693832538e+01 0 0 0
106 1 1 3.3446168536192478e-02 9.0412708889405859e+00 1.9682385358208836e+00 1.9431669988439919e+00 0 0 0
107 1 2 2.9636432153960712e-01 8.1805686484189106e+00 2.5573979130317377e+00 3.0263207686983415e+00 0 0 0
108 1 4 -3.6055069328458189e-01 8.5533088870244640e+00 2.5683622899776948e+00 4.2546028553635082e+00 0 0 0
109 1 4 -3.6528460038353694e-01 6.9971306413846222e+00 2.9686330070927585e+00 2.7025203217844007e+00 0 0 0
110 1 2 2.9499982644006784e-01 1.0507704173760132e+01 2.0241893148494539e+00 2.1405116165364291e+00 0 0 0
111 1 4 -3.7985948110498785e-01 1.0867314899722501e+01 2.8833714973097528e+00 3.0303859611125255e+00 0 0 0
112 1 4 -3.9601673967697526e-01 1.1342194661068914e+01 1.4502050695342399e+00 1.3665614966221451e+00 0 0 0
113 1 1 2.5503406907790788e-01 4.7585644721321625e+00 8.0812144381830109e+00 6.3176762900702554e+00 0 0 0
114 1 2 -4.6892779728217887e-01 3.3964427759845317e+00 8.4987201867077466e+00 6.2083215031442363e+00 0 0 0
115 1 3 3.5857011124980492e-01 3.2120141464632201e+00 8.3779312952508107e+00 5.1376317785876466e+00 0 0 0
116 1 3 3.6715810295984719e-01 2.8907113866032970e+00 8.1568280697536135e+00 7.0290582463765352e+00 0 0 0
117 1 2 -4.4187071838711783e-01 5.6118047154358717e+00 8.3968738973927302e+00 5.2244566641497778e+00 0 0 0
118 1 3 3.8013649638902419e-01 6.5830922330988457e+00 8.0091000721903338e+00 5.4584701680575840e+00 0 0 0
119 1 3 3.8751193369656667e-01 5.0472043554399644e+00 8.5636680572992105e+00 4.4086332740050462e+00 0 0 0
120 1 1 4.2003273007207506e-02 5.1893026116460419e+00 7.4175316677272027e+00 7.5051801707881127e+00 0 0 0
121 1 2 2.5318097115772065e-01 4.1597284664222078e+00 7.0499478080302058e+00 8.5554621055126745e+00 0 0 0
122 1 4 -3.2335804135815027e-01 4.4497245497062536e+00 7.4608086691696247e+00 9.7366845137062299e+00 0 0 0
123 1 4 -3.3691520780216855e-01 3.1125148543848828e+00 6.3500223318948805e+00 8.2517901920122014e+00 0 0 0
124 1 2 3.1332446249033086e-01 6.6257800024045954e+00 7.1529086804750586e+00 7.7736706782315563e+00 0 0 0
125 1 4 -3.7782290083385073e-01 6.9235807687425819e+00 6.6010512882920818e+00 8.9048384807137761e+00 0 0 0
126 1 4 -4.0512955663313721e-01 7.4711322336919466e+00 7.4579705782770347e+00 6.8521477765658476e+00 0 0 0
127 1 1 2.9229356868862649e-01 5.2919976281548315e+00 1.1346288328537501e+01 1.0992397619488839e+01 0 0 0
128 1 2 -4.4295915667532970e-01 6.6709448472427333e+00 1.1654454767589975e+01 1.0924626284174202e+01 0 0 0
129 1 3 3.6329889152568440e-01 7.0862703360197674e+00 1.2121333547155226e+01 1.1758910345331088e+01 0 0 0
130 1 3 3.7269840425022965e-01 7.1555157613279343e+00 1.1160452648779135e+01 1.0076209022413742e+01 0 0 0
131 1 2 -4.5537951558866291e-01 4.5368182830800663e+00 1.1761914158144410e+01 1.2121745167613540e+01 0 0 0
132 1 3 3.9082391587061988e-01 3.5705955157793290e+00 1.1347426386515258e+01 1.2203254384674070e+01 0 0 0
133 1 3 3.7122752435347062e-01 5.1034484031837586e+00 1.2278767885231785e+01 1.2836219764574489e+01 0 0 0
134 1 1 4.9699219731864877e-02 4.7080439970583017e+00 1.0545693990648616e+01 1.0020137993256890e+01 0 0 0
135 1 2 2.6835758702760348e-01 5.5873758037208052e+00 1.0038641812494618e+01 8.8961656701038336e+00 0 0 0
136 1 4 -3.5186019168955962e-01 5.2758464620351466e+00 1.0439193078939153e+01 7.7050221092877491e+00 0 0 0
137 1 4 -3.6715280681722873e-01 6.7007730309941245e+00 9.4576233227069739e+00 9.1577679750913692e+00 0 0 0
138 1 2 3.0095633187648219e-01 3.2337684578012711e+00 1.0199978310813156e+01 1.0021753168703253e+01 0 0 0
139 1 4 -3.2939777181552610e-01 2.8024604768250323e+00 9.5458213144627138e+00 8.9939711053618137e+00 0 0 0
140 1 4 -3.9745877812449809e-01 2.4680115461228720e+00 1.0683453608582843e+01 1.0927448959624366e+01 0 0 0
141 1 1 3.0021055498124677e-01 1.9135260702013424e+00 1.1433990686654189e+01 5.8169815491975649e+00 0 0 0
142 1 2 -4.6001377416097122e-01 3.2893250893914940e+00 1.1109816770331491e+01 5.7313414436443262e+00 0 0 0
143 1 3 3.6947240176065888e-01 3.5788382993472889e+00 1.0628397305011198e+01 6.5981524737819184e+00 0 0 0
144 1 3 3.7955100488260302e-01 3.7839124281512606e+00 1.1427604854907115e+01 4.8778478991434202e+00 0 0 0
145 1 2 -4.4054733905858356e-01 1.1121223343667246e+00 1.1154215316938762e+01 6.9241699484527039e+00 0 0 0
146 1 3 3.9413324749408446e-01 3.1581797801999080e-02 1.1235459069921308e+01 6.8531789455801997e+00 0 0 0
147 1 3 3.7466863404958256e-01 1.6360485489989391e+00 1.0693923757814792e+01 7.6447138683196592e+00 0 0 0
148 1 1 2.9985558942133402e-02 1.3435901333112781e+00 1.2062384989596092e+01 4.6659089971756806e+00 0 0 0
149 1 2 2.6995628750024531e-01 2.1665892526014083e+00 1.2509192636852653e+01 3.4828217553648693e+00 0 0 0
150 1 4 -3.3549089580601377e-01 1.6079110606527411e+00 1.2347103923378089e+01 2.3449315817883756e+00 0 0 0
151 1 4 -4.0385966527386946e-01 3.4367555463233401e+00 4.6978861493434443e-01 3.6309432244268396e+00 0 1 0
152 1 2 2.8599996443270631e-01 1.3321926939286906e+01 1.2035598534713186e+01 4.5196701355210163e+00 -1 0 0
153 1 4 -3.3059691855606255e-01 1.2886131896518824e+01 1.2535174775318417e+01 3.3991306616484334e+00 0 0 0
154 1 4 -3.6392827160465779e-01 1.2594309484922240e+01 1.1570372725454872e+01 5.4640164708630552e+00 0 0 0
155 1 1 3.0546070190040686e-01 1.5766353031973466e+00 8.2367583793112118e+00 8.3901869354637837e-01 0 0 0
156 1 2 -4.7512053887972738e-01 2.6750325438201067e-01 7.8276767365309388e+00 8.1846433737486957e-01 1 0 0
157 1 3 3.6426236984872035e-01 1.3136582659214300e+01 7.6229557565108079e+00 2.1296965863111140e+01 0 0 0
158 1 3 3.8374280657572724e-01 1.3198286801991552e+01 7.9686009444822243e+00 1.7018486841102360e+00 0 0 0
159 1 2 -4.4896290867919564e-01 2.0552413298277212e+00 8.1310427792682454e+00 2.1212114769353740e+01 0 0 0
160 1 3 3.7572555490789417e-01 3.0862376671149669e+00 8.3472412786061838e+00 2.1422271764138991e+01 0 0 0
161 1 3 3.8955831935733798e-01 1.6775417539418003e+00 7.6584258099225773e+00 2.0382392936127374e+01 0 0 0
162 1 1 3.7287255014820636e-02 2.0654150872066883e+00 8.8590841063836709e+00 2.0498432216522353e+00 0 0 0
163 1 2 2.7551969502458229e-01 1.1218120556699054e+00 9.2322280833927870e+00 3.1553503529304123e+00 0 0 0
164 1 4 -3.5054125905205863e-01 1.5436625682973273e+00 9.1436087481586839e+00 4.3634997521842438e+00 0 0 0
165 1 4 -3.5846668200035836e-01 1.3365259422679999e+01 9.5615003520448738e+00 2.9089727320659451e+00 0 0 0
166 1 2 2.7880274334451727e-01 3.5048711104999044e+00 9.1484653058496228e+00 2.2489241112815459e+00 0 0 0
167 1 4 -3.2684540162839693e-01 3.8571205821647383e+00 9.8693515134442951e+00 3.2840709664368810e+00 0 0 0
168 1 4 -3.6628837743325143e-01 4.3603538035936156e+00 8.7302014620568578e+00 1.3963227681463866e+00 0 0 0
169 1 1 2.9283674783744562e-01 1.1474972841462099e+01 7.9621015032067888e+00 6.1729059363621595e+00 0 0 0
170 1 2 -4.9456209884534652e-01 1.0115982734225947e+01 7.9620999225934668e+00 5.9163789681805019e+00 0 0 0
171 1 3 3.6294683433600017e-01 9.7806730606944292e+00 8.5137501498808774e+00 5.0443476969062848e+00 0 0 0
172 1 3 3.8493238779686101e-01 9.5580204621826343e+00 7.6767237036174416e+00 6.7532992901888456e+00 0 0 0
173 1 2 -4.5653761252049135e-01 1.2354187185843523e+01 8.4780230502937393e+00 5.1590940442076505e+00 0 0 0
174 1 3 3.9433323408242199e-01 1.3314284126441214e+01 8.4251613294818117e+00 5.3367575951994679e+00 0 0 0
175 1 3 3.7627340664234765e-01 1.1867098428046484e+01 8.5298733562755569e+00 4.2234580099921715e+00 0 0 0
176 1 1 2.7751364291568905e-02 1.2066182241543371e+01 7.6057241586668960e+00 7.4359962830943118e+00 0 0 0
177 1 2 2.8187758968085680e-01 1.1141189742697385e+01 7.5281635737513684e+00 8.5937201110330754e+00 0 0 0
178 1 4 -3.5420456583039944e-01 1.1643466535604551e+01 7.4682481444263447e+00 9.7807139715463780e+00 0 0 0
179 1 4 -3.8193928815413136e-01 9.8695459239298522e+00 7.5469403065352214e+00 8.4085823871071632e+00 0 0 0
180 1 2 2.7829602475520188e-01 7.2307179639439167e-02 7.3806946769415820e+00 7.5504345991962696e+00 1 0 0
181 1 4 -3.4345166058736148e-01 4.8601663111130278e-01 6.8853928276479426e+00 8.6781019738559237e+00 0 0 0
182 1 4 -3.8238831819051278e-01 8.4519600419526131e-01 7.9077511655685289e+00 6.6568089813500055e+00 0 0 0
183 1 1 3.1209028144343498e-01 1.1905262698010912e+01 1.1727515025726630e+01 1.1087957901021838e+01 0 0 0
184 1 2 -4.5344492766071870e-01 1.3240660799261121e+01 1.1616084450142008e+01 1.1401068218798208e+01 -1 0 0
185 1 3 3.5856166309582144e-01 3.5540038606511754e-02 1.2052306297716814e+01 1.2439125058034607e+01 0 0 0
186 1 3 3.7088107874132409e-01 4.3925889945854868e-01 1.1076212002165716e+01 1.0667960289900440e+01 0 0 0
187 1 2 -4.7222262913619895e-01 1.1093923861812270e+01 1.2473235756678491e+01 1.1946311363771702e+01 0 0 0
188 1 3 3.8028240970494931e-01 1.0121273150710831e+01 1.2411780778708604e+01 1.1679249898060810e+01 0 0 0
189 1 3 3.8360343014705817e-01 1.1482197893387927e+01 1.2660388109759978e+01 1.2867925999466479e+01 0 0 0
190 1 1 3.5563942672554985e-02 1.1403524549343880e+01 1.1125427891951416e+01 9.8922079982138573e+00 0 0 0
191 1 2 2.8337724746811743e-01 1.2286393644770170e+01 1.0647427364592703e+01 8.8170804285825284e+00 0 0 0
192 1 4 -3.6289517563477874e-01 1.1787439861161984e+01 1.0490526203503714e+01 7.6347218344938623e+00 0 0 0
193 1 4 -3.7318933470932014e-01 4.0882037832236574e-02 1.0327952097571780e+01 9.1020464300932815e+00 0 0 0
194 1 2 2.6466930848052533e-01 9.9160935232809084e+00 1.0871999162671148e+01 9.7483702770553116e+00 0 0 0
195 1 4 -3.5189096837775979e-01 9.6238416564209874e+00 9.9289428042457661e+00 8.9504989468701108e+00 0 0 0
196 1 4 -3.8617872768405404e-01 9.0053504443562069e+00 1.1501624657150789e+01 1.0402564610900964e+01 0 0 0
197 1 1 2.6332944001469843e-01 8.5494209211907766e+00 1.1244356092901054e+01 6.0001296306645671e+00 0 0 0
198 1 2 -4.8287978509211704e-01 9.8748783670187539e+00 1.1480029239317869e+01 6.4912990082834012e+00 0 0 0
199 1 3 3.7510980984411985e-01 1.0068586346121087e+01 1.0734577473324915e+01 7.1666942667615281e+00 0 0 0
200 1 3 3.6462008136012153e-01 1.0438010543114288e+01 1.1912765908489444e+01 5.7525679187251786e+00 0 0 0
201 1 2 -4.2939939374483571e-01 7.6693065164432239e+00 1.0390181675871855e+01 6.6552348304551234e+00 0 0 0
202 1 3 3.7420849276891816e-01 6.6994136004629787e+00 1.0270286601406962e+01 6.0624210980257915e+00 0 0 0
203 1 3 3.5610082660761933e-01 7.9368294082720263e+00 1.0364349626088861e+01 7.6679117353059976e+00 0 0 0
204 1 1 4.6853515894901575e-02 8.1239298509650677e+00 1.1738327852012855e+01 4.7184371446740370e+00 0 0 0
205 1 2 2.7748958135938551e-01 9.1273243825617900e+00 1.2004663863747002e+01 3.6391693195545392e+00 0 0 0
206 1 4 -3.8039044898151841e-01 8.7202448518306053e+00 1.1844461363429618e+01 2.4249289156390947e+00 0 0 0
207 1 4 -3.4695381865231240e-01 1.0281464444617848e+01 1.2515695279146840e+01 3.9890541943395843e+00 0 0 0
208 1 2 2.5939871507820644e-01 6.6775014442054008e+00 1.1886681083433324e+01 4.3648482835509768e+00 0 0 0
209 1 4 -3.6591607656589747e-01 6.4818905846777284e+00 1.2888180268426071e+01 3.5717390942155989e+00 0 0 0
210 1 4 -3.8789391879192869e-01 5.7871000635673919e+00 1.1202333395781574e+01 4.9633871126944067e+00 0 0 0
211 1 1 2.7832231913985583e-01 8.3506556593985248e+00 7.9601419532838058e+00 8.2426997794164469e-01 0 0 0
212 1 2 -4.7448855930569045e-01 6.7092250616940712e+00 8.5726308570587886e+00 2.1708219565402125e+01 0 0 -1
213 1 3 3.7583574361121419e-01 6.4535738609685032e+00 7.9905983816984287e+00 2.0889367413885012e+01 0 0 0
214 1 3 3.7224628920118175e-01 6.5843557993436699e+00 8.9981387235152592e+00 9.6016015433924995e-01 0 0 0
215 1 2 -4.3332780143582561e-01 8.7599240001016057e+00 7.1910803281912283e+00 2.1683276542845803e+01 0 0 0
216 1 3 3.8143929163845014e-01 1.0067259522245664e+01 6.8002185901638121e+00 9.1037506142905422e-01 0 0 1
217 1 3 3.5787028360001244e-01 8.5620950544094239e+00 7.2008880964276738e+00 2.0645216472901872e+01 0 0 0
218 1 1 4.1149848519667957e-02 8.7445642515802700e+00 8.5079065771044924e+00 2.1062547438730923e+00 0 0 0
219 1 2 2.9664457384192572e-01 7.7000871449709276e+00 8.9781053867189122e+00 3.0943882838431600e+00 0 0 0
220 1 4 -3.7641692460491655e-01 8.0378091529938942e+00 9.0127702368656042e+00 4.3228870819219214e+00 0 0 0
221 1 4 -3.5322837657270573e-01 6.5860834676115587e+00 9.4283294636138777e+00 2.6110183039313961e+00 0 0 0
222 1 2 2.4080857821058374e-01 1.0181824877562702e+01 8.6296629259140243e+00 2.3960774190547305e+00 0 0 0
223 1 4 -3.7384640725380180e-01 1.0504958667031836e+01 9.4566711074221121e+00 3.3359074089131964e+00 0 0 0
224 1 4 -3.6436910664155076e-01 1.0999710320840702e+01 7.7234966476350868e+00 1.9255419315017328e+00 0 0 0
225 1 1 2.9314371317903765e-01 4.6654293790074544e+00 2.6492238738943592e+00 1.6834913668354240e+01 0 0 0
226 1 2 -4.5348735990712119e-01 3.3473106384079307e+00 2.4389237089159104e+00 1.6528063369656714e+01 0 0 0
227 1 3 3.6531132932208887e-01 3.1151490836168234e+00 2.9585007674966786e+00 1.5579948206905044e+01 0 0 0
228 1 3 3.6858425109359350e-01 2.8266796419174671e+00 1.7456823141392266e+00 1.7288546007328733e+01 0 0 0
229 1 2 -3.8945165035090618e-01 5.4629080860755197e+00 3.4447614636088870e+00 1.6042917401463427e+01 0 0 0
230 1 3 3.5706219551579838e-01 6.5166832424678152e+00 3.6330362575098709e+00 1.6659407276637673e+01 0 0 0
231 1 3 3.5549044418392384e-01 4.9671638785100729e+00 4.0618486523214292e+00 1.5294440963170475e+01 0 0 0
232 1 1 2.7381730606236186e-02 5.2532295637073885e+00 2.0826075183537860e+00 1.8018298453599037e+01 0 0 0
233 1 2 2.8610569694968196e-01 4.4049922532470838e+00 1.5784519429114392e+00 1.9118295269045973e+01 0 0 0
234 1 4 -3.8083068638995632e-01 4.9198121643263439e+00 1.4736200240791089e+00 2.0285899640591857e+01 0 0 0
235 1 4 -3.9330416850443017e-01 3.1700229589169862e+00 1.3120032412966722e+00 1.8850373130112494e+01 0 0 0
236 1 2 2.8761790193241416e-01 6.7733701244655000e+00 2.0089287995782392e+00 1.8163961258682804e+01 0 0 0
237 1 4 -3.4693032409569780e-01 7.1806607818334687e+00 1.0977722488733463e+00 1.8937284249156058e+01 0 0 0
238 1 4 -3.8302367805477011e-01 7.5346773062706038e+00 2.6760385278695833e+00 1.7367118372111747e+01 0 0 0
239 1 1 2.7987738522478700e-01 5.1658395528002243e+00 5.3538604409583312e+00 2.1953714628841027e+01 0 0 0
240 1 2 -4.7043037126525822e-01 6.8950134632020106e+00 4.8256754230853982e+00 8.8916503163540839e-01 0 0 1
241 1 3 3.7192316311675849e-01 7.1635601323945508e+00 5.2526295541998849e+00 1.8128800462247794e+00 0 0 0
242 1 3 3.7066578627978025e-01 7.0129037481857948e+00 4.7498742576255362e+00 2.1414781965463575e+01 0 0 0
243 1 2 -4.3404689173065003e-01 4.7037678148055182e+00 5.7547629238229137e+00 1.4342229813584872e+00 0 0 0
244 1 3 3.8349568373770226e-01 3.7668384383415217e+00 6.1059412462331331e+00 9.6203075999144894e-01 0 0 0
245 1 3 3.6705377318923688e-01 5.1447941527994354e+00 5.9594672564143805e+00 2.3349088711434667e+00 0 0 0
246 1 1 3.3495988645958354e-02 4.6432849668957008e+00 4.9846449865266456e+00 2.0687734772716595e+01 0 0 0
247 1 2 2.7798678785714004e-01 5.5968308814158974e+00 4.8138500521957583e+00 1.9517672950670651e+01 0 0 0
248 1 4 -3.8521364393757634e-01 5.0550283141777896e+00 4.9355718667071065e+00 1.8353824582609342e+01 0 0 0
249 1 4 -3.7923331104526697e-01 6.8284704792692823e+00 4.5083032980570703e+00 1.9680427294871592e+01 0 0 0
250 1 2 2.9647435970940195e-01 3.1609057166104844e+00 4.9952364301255310e+00 2.0467881541976695e+01 0 0 0
251 1 4 -3.5546295577552695e-01 2.7113450405948010e+00 4.2598380784767826e+00 1.9523059718023411e+01 0 0 0
252 1 4 -4.0237059266611974e-01 2.3807104642833465e+00 5.6466725970382434e+00 2.1235768709363164e+01 0 0 0
253 1 1 2.8123817115952582e-01 1.6926505746213261e+00 5.3911637270646127e+00 1.6430798694053557e+01 0 0 0
254 1 2 -5.0526110609195651e-01 2.9515288453712474e+00 5.7190361538734074e+00 1.6931185751749254e+01 0 0 0
255 1 3 3.7521469642459548e-01 3.1811900628536565e+00 5.3062094083140403e+00 1.7852096721679310e+01 0 0 0
256 1 3 3.6163997236572809e-01 3.5775575378975222e+00 6.0653617065548113e+00 1.6110749124149713e+01 0 0 0
257 1 2 -3.9672530500202779e-01 7.6832315108852667e-01 4.6936214684577804e+00 1.7275023504895785e+01 0 0 0
258 1 3 3.7540789127278545e-01 1.3183084877777540e+01 4.5333280677319934e+00 1.6725330527093689e+01 -1 0 0
259 1 3 3.6808491546187633e-01 1.2918957772983279e+00 4.2714968165345173e+00 1.8097476959530567e+01 0 0 0
260 1 1 2.8922103578644928e-02 1.3248396208569866e+00 5.7724286130217228e+00 1.5103655514322977e+01 0 0 0
261 1 2 2.7559632815351037e-01 2.3665826072087963e+00 5.7611757599744244e+00 1.4051444800657608e+01 0 0 0
262 1 4 -3.9557387905045255e-01 1.9724607455537218e+00 5.7215695897871628e+00 1.2845879406004915e+01 0 0 0
263 1 4 -3.8951780504707822e-01 3.6348843387247753e+00 5.8651554663203642e+00 1.4436481490581329e+01 0 0 0
264 1 2 2.6959552163307121e-01 1.3310534283833158e+01 5.9345540731214150e+00 1.4829355489789680e+01 -1 0 0
265 1 4 -3.3396162518006806e-01 1.3041809844401302e+01 6.7929529376868611e+00 1.3944781389670093e+01 0 0 0
266 1 4 -3.9719299100765360e-01 1.2439872641559440e+01 5.3847385146679931e+00 1.5618061303237466e+01 0 0 0
267 1 1 3.0629339000316058e-01 1.4646789143101950e+00 1.9852148723772112e+00 1.1451746575202645e+01 0 0 0
268 1 2 -4.8899450325952687e-01 1.3926230293461409e-01 2.1812686593935400e+00 1.1126399656752680e+01 1 0 0
269 1 3 3.6565598724779691e-01 1.3338485832742705e+01 1.8700329951069552e+00 1.0162844981259639e+01 0 0 0
270 1 3 3.6949267339004976e-01 1.3093062679036036e+01 2.9097417979816202e+00 1.1691068479675705e+01 0 0 0
271 1 2 -4.1509128414879826e-01 2.3291668956533771e+00 1.2194270900724480e+00 1.0669789861367974e+01 0 0 0
272 1 3 3.8295137440271393e-01 3.3873981784196645e+00 1.1778037635271592e+00 1.1101999065185572e+01 0 0 0
273 1 3 3.5924585728838837e-01 1.8138307136659284e+00 6.7012395158854532e-01 9.9156016785040979e+00 0 0 0
274 1 1 4.0567008241247461e-02 1.9816975021049485e+00 2.5289640072587223e+00 1.2687430093318202e+01 0 0 0
275 1 2 2.8381888441994169e-01 1.0013167583520202e+00 2.9395376013578129e+00 1.3732198583016988e+01 0 0 0
276 1 4 -3.9320796497721033e-01 1.4170182245486207e+00 3.0581094754964937e+00 1.4947691172436727e+01 0 0 0
277 1 4 -3.6984934080405257e-01 1.3257591540669322e+01 3.2489896693350873e+00 1.3360460711021068e+01 0 0 0
278 1 2 3.0294408256427491e-01 3.4786805396408265e+00 2.6608049939529170e+00 1.2853625457269146e+01 0 0 0
279 1 4 -3.3504608786882756e-01 3.8487423386586168e+00 3.4688721561908884e+00 1.3757270365900919e+01 0 0 0