ITEM: TIMESTEP
0
ITEM: NUMBER OF ATOMS
336
ITEM: BOX BOUNDS xy xz yz pp pp pp
0.0000000000000000e+00 2.6364000320399999e+01 0.0000000000000000e+00
0.0000000000000000e+00 1.1574000358599999e+01 0.0000000000000000e+00
0.0000000000000000e+00 1.0708999633800000e+01 0.0000000000000000e+00
ITEM: ATOMS id type xs ys zs
1 1 0.0929903 0.356471 0.445049
2 1 0.90701 0.643529 0.554951
3 1 0.15701 0.643529 0.945049
4 1 0.34299 0.356471 0.054951
5 1 0.90701 0.856471 0.0549511
6 1 0.0929903 0.143529 0.945049
7 1 0.34299 0.143529 0.554951
8 1 0.15701 0.856471 0.445049
9 1 0.59299 0.356471 0.445049
10 1 0.40701 0.643529 0.554951
11 1 0.65701 0.643529 0.945049
12 1 0.84299 0.356471 0.0549511
13 1 0.40701 0.856471 0.0549511
14 1 0.59299 0.143529 0.945049
15 1 0.84299 0.143529 0.554951
16 1 0.65701 0.856471 0.445049
17 1 0.0242727 0.239952 0.339826
18 1 0.975727 0.760049 0.660174
19 1 0.225727 0.760049 0.839826
20 1 0.274273 0.239952 0.160175
21 1 0.975727 0.739952 0.160175
22 1 0.0242727 0.260049 0.839826
23 1 0.274273 0.260049 0.660174
24 1 0.225727 0.739952 0.339826
25 1 0.524273 0.239952 0.339825
26 1 0.475727 0.760048 0.660174
27 1 0.725727 0.760048 0.839826
28 1 0.774273 0.239952 0.160175
29 1 0.475727 0.739952 0.160175
30 1 0.524273 0.260048 0.839826
31 1 0.774273 0.260048 0.660174
32 1 0.725727 0.739952 0.339825
33 1 0.0747639 0.379981 0.209949
34 1 0.925236 0.620019 0.790051
35 1 0.175236 0.620019 0.709949
36 1 0.324764 0.379981 0.290051
37 1 0.925236 0.879981 0.290051
38 1 0.0747639 0.120019 0.709949
39 1 0.324764 0.120019 0.790051
40 1 0.175236 0.879981 0.209949
41 1 0.574764 0.379981 0.209949
42 1 0.425236 0.620019 0.790051
43 1 0.675236 0.620019 0.709949
44 1 0.824764 0.37998 0.290051
45 1 0.425236 0.87998 0.290051
46 1 0.574764 0.120019 0.709949
47 1 0.824764 0.120019 0.790051
48 1 0.675236 0.87998 0.209949
49 2 0.124318 0.290983 0.424076
50 2 0.875682 0.709017 0.575924
51 2 0.125682 0.709017 0.924076
52 2 0.374318 0.290983 0.075924
53 2 0.875682 0.790983 0.075924
54 2 0.124318 0.209017 0.924076
55 2 0.374318 0.209017 0.575924
56 2 0.125682 0.790983 0.424076
57 2 0.624318 0.290983 0.424076
58 2 0.375682 0.709017 0.575924
59 2 0.625682 0.709017 0.924076
60 2 0.874318 0.290983 0.075924
61 2 0.375682 0.790983 0.075924
62 2 0.624318 0.209017 0.924076
63 2 0.874318 0.209017 0.575924
64 2 0.625682 0.790983 0.424076
65 2 0.102713 0.409458 0.532151
66 2 0.897287 0.590542 0.467849
67 2 0.147287 0.590542 0.0321507
68 2 0.352713 0.409458 0.967849
69 2 0.897287 0.909458 0.967849
70 2 0.102713 0.0905424 0.0321507
71 2 0.352713 0.0905424 0.467849
72 2 0.147287 0.909458 0.532151
73 2 0.602713 0.409458 0.532151
74 2 0.397287 0.590542 0.467849
75 2 0.647287 0.590542 0.0321507
76 2 0.852713 0.409458 0.967849
77 2 0.397287 0.909458 0.967849
78 2 0.602713 0.0905424 0.0321507
79 2 0.852713 0.0905424 0.467849
80 2 0.647287 0.909458 0.532151
81 2 0.984036 0.205553 0.354507
82 2 0.015964 0.794447 0.645493
83 2 0.265964 0.794447 0.854507
84 2 0.234036 0.205553 0.145493
85 2 0.0159639 0.705553 0.145493
86 2 0.984036 0.294447 0.854507
87 2 0.234036 0.294447 0.645493
88 2 0.265964 0.705553 0.354507
89 2 0.484036 0.205553 0.354507
90 2 0.515964 0.794447 0.645493
91 2 0.765964 0.794447 0.854507
92 2 0.734036 0.205553 0.145493
93 2 0.515964 0.705553 0.145493
94 2 0.484036 0.294447 0.854507
95 2 0.734036 0.294447 0.645493
96 2 0.765964 0.705553 0.354507
97 2 0.0507441 0.164502 0.318049
98 2 0.949256 0.835498 0.681951
99 2 0.199256 0.835498 0.818049
100 2 0.300744 0.164502 0.181951
101 2 0.949256 0.664502 0.181951
102 2 0.0507441 0.335498 0.818049
103 2 0.300744 0.335498 0.681951
104 2 0.199256 0.664502 0.318049
105 2 0.550744 0.164502 0.318049
106 2 0.449256 0.835498 0.681951
107 2 0.699256 0.835498 0.818049
108 2 0.800744 0.164503 0.181951
109 2 0.449256 0.664503 0.181951
110 2 0.550744 0.335498 0.818049
111 2 0.800744 0.335498 0.681951
112 2 0.699256 0.664502 0.318049
113 2 0.10589 0.314338 0.186528
114 2 0.89411 0.685662 0.813472
115 2 0.14411 0.685662 0.686528
116 2 0.35589 0.314338 0.313472
117 2 0.89411 0.814338 0.313472
118 2 0.10589 0.185662 0.686528
119 2 0.35589 0.185662 0.813472
120 2 0.14411 0.814338 0.186528
121 2 0.60589 0.314338 0.186528
122 2 0.39411 0.685662 0.813472
123 2 0.64411 0.685662 0.686528
124 2 0.85589 0.314338 0.313472
125 2 0.39411 0.814338 0.313472
126 2 0.60589 0.185662 0.686528
127 2 0.85589 0.185662 0.813472
128 2 0.64411 0.814338 0.186528
129 2 0.0727585 0.448247 0.132508
130 2 0.927242 0.551753 0.867492
131 2 0.177242 0.551753 0.632508
132 2 0.322758 0.448247 0.367492
133 2 0.927242 0.948247 0.367492
134 2 0.0727585 0.0517534 0.632508
135 2 0.322758 0.0517534 0.867492
136 2 0.177242 0.948247 0.132508
137 2 0.572758 0.448247 0.132508
138 2 0.427242 0.551753 0.867492
139 2 0.677242 0.551753 0.632508
140 2 0.822758 0.448247 0.367492
141 2 0.427242 0.948247 0.367492
142 2 0.572758 0.0517534 0.632508
143 2 0.822758 0.0517534 0.867492
144 2 0.677242 0.948247 0.132508
145 3 0.0876631 0.432175 0.333149
146 3 0.912337 0.567825 0.666851
147 3 0.162337 0.567825 0.833149
148 3 0.337663 0.432175 0.166851
149 3 0.912337 0.932175 0.166851
150 3 0.0876631 0.0678248 0.833149
151 3 0.337663 0.0678248 0.666851
152 3 0.162337 0.932175 0.333149
153 3 0.587663 0.432175 0.333149
154 3 0.412337 0.567825 0.666851
155 3 0.662337 0.567825 0.833149
156 3 0.837663 0.432175 0.166851
157 3 0.412337 0.932175 0.166851
158 3 0.587663 0.0678248 0.833149
159 3 0.837663 0.0678248 0.666851
160 3 0.662337 0.932175 0.333149
161 3 0.046339 0.282105 0.461725
162 3 0.953661 0.717895 0.538275
163 3 0.203661 0.717895 0.961725
164 3 0.296339 0.282105 0.038275
165 3 0.953661 0.782105 0.038275
166 3 0.046339 0.217895 0.961725
167 3 0.296339 0.217895 0.538275
168 3 0.203661 0.782105 0.461725
169 3 0.546339 0.282105 0.461725
170 3 0.453661 0.717895 0.538275
171 3 0.703661 0.717895 0.961725
172 3 0.796339 0.282104 0.0382751
173 3 0.453661 0.782104 0.0382751
174 3 0.546339 0.217895 0.961725
175 3 0.796339 0.217895 0.538275
176 3 0.703661 0.782104 0.461725
177 3 0.0274189 0.308405 0.219699
178 3 0.972581 0.691595 0.780301
179 3 0.222581 0.691595 0.719699
180 3 0.277419 0.308405 0.2803
181 3 0.972581 0.808405 0.2803
182 3 0.0274189 0.191595 0.719699
183 3 0.277419 0.191595 0.780301
184 3 0.222581 0.808405 0.219699
185 3 0.527419 0.308405 0.2197
186 3 0.472581 0.691595 0.7803
187 3 0.722581 0.691595 0.719699
188 3 0.777419 0.308405 0.2803
189 3 0.472581 0.808405 0.2803
190 3 0.527419 0.191595 0.719699
191 3 0.777419 0.191595 0.7803
192 3 0.722581 0.808405 0.2197
193 3 0.115611 0.547815 0.335017
194 3 0.884389 0.452185 0.664983
195 3 0.134389 0.452185 0.835017
196 3 0.365611 0.547815 0.164983
197 3 0.884389 0.0478153 0.164983
198 3 0.115611 0.952185 0.835017
199 3 0.365611 0.952185 0.664983
200 3 0.134389 0.047815 0.335017
201 3 0.615611 0.547815 0.335017
202 3 0.384389 0.452185 0.664983
203 3 0.634389 0.452185 0.835017
204 3 0.865611 0.547815 0.164983
205 3 0.384389 0.0478153 0.164983
206 3 0.615611 0.952185 0.835017
207 3 0.865611 0.952185 0.664983
208 3 0.634389 0.0478151 0.335017
209 3 0.00608328 0.354025 0.531411
210 3 0.993917 0.645975 0.468589
211 3 0.243917 0.645975 0.0314112
212 3 0.256083 0.354025 0.968589
213 3 0.993917 0.854025 0.968589
214 3 0.00608328 0.145975 0.0314111
215 3 0.256083 0.145975 0.468589
216 3 0.243917 0.854025 0.531411
217 3 0.506083 0.354025 0.531411
218 3 0.493917 0.645975 0.468589
219 3 0.743917 0.645976 0.0314111
220 3 0.756083 0.354025 0.968589
221 3 0.493917 0.854024 0.968589
222 3 0.506083 0.145975 0.0314111
223 3 0.756083 0.145975 0.468589
224 3 0.743917 0.854025 0.531411
225 3 0.981781 0.388214 0.206496
226 3 0.0182186 0.611786 0.793504
227 3 0.268219 0.611786 0.706496
228 3 0.231781 0.388214 0.293504
229 3 0.0182186 0.888214 0.293504
230 3 0.981781 0.111786 0.706496
231 3 0.231781 0.111786 0.793504
232 3 0.268219 0.888214 0.206496
233 3 0.481781 0.388214 0.206496
234 3 0.518219 0.611786 0.793504
235 3 0.768219 0.611786 0.706496
236 3 0.731781 0.388214 0.293504
237 3 0.518219 0.888214 0.293504
238 3 0.481781 0.111786 0.706496
239 3 0.731781 0.111786 0.793504
240 3 0.768219 0.888214 0.206496
241 4 0.115964 0.606152 0.233565
242 4 0.884036 0.393847 0.766436
243 4 0.134036 0.393847 0.733564
244 4 0.365964 0.606152 0.266435
245 4 0.884036 0.106152 0.266435
246 4 0.115964 0.893847 0.733564
247 4 0.365964 0.893847 0.766436
248 4 0.134036 0.106152 0.233565
249 4 0.615964 0.606152 0.233565
250 4 0.384036 0.393847 0.766436
251 4 0.634036 0.393847 0.733564
252 4 0.865964 0.606152 0.266435
253 4 0.384036 0.106152 0.266435
254 4 0.615964 0.893847 0.733564
255 4 0.865964 0.893847 0.766436
256 4 0.634036 0.106152 0.233565
257 4 0.135496 0.579267 0.437875
258 4 0.864504 0.420733 0.562125
259 4 0.114503 0.420733 0.937875
260 4 0.385496 0.579267 0.0621256
261 4 0.864504 0.079267 0.0621259
262 4 0.135497 0.920733 0.937875
263 4 0.385497 0.920733 0.562124
264 4 0.114504 0.0792673 0.437875
265 4 0.635496 0.579267 0.437875
266 4 0.364504 0.420733 0.562125
267 4 0.614504 0.420733 0.937875
268 4 0.885496 0.579267 0.0621259
269 4 0.364504 0.079267 0.0621259
270 4 0.635496 0.920733 0.937875
271 4 0.885496 0.920733 0.562125
272 4 0.614504 0.0792672 0.437875
273 4 0.960136 0.316255 0.531785
274 4 0.0398639 0.683745 0.468215
275 4 0.289864 0.683745 0.0317851
276 4 0.210136 0.316255 0.968215
277 4 0.0398639 0.816255 0.968215
278 4 0.960136 0.183745 0.0317852
279 4 0.210136 0.183745 0.468215
280 4 0.289864 0.816255 0.531785
281 4 0.460136 0.316255 0.531785
282 4 0.539864 0.683745 0.468215
283 4 0.789864 0.683745 0.0317852
284 4 0.710136 0.316255 0.968215
285 4 0.539864 0.816256 0.968215
286 4 0.460136 0.183745 0.0317852
287 4 0.710136 0.183745 0.468215
288 4 0.789864 0.816255 0.531785
289 4 0.0206092 0.433476 0.607858
290 4 0.979391 0.566524 0.392142
291 4 0.229391 0.566524 0.107858
292 4 0.270609 0.433476 0.892142
293 4 0.979391 0.933476 0.892142
294 4 0.0206092 0.0665239 0.107858
295 4 0.270609 0.0665238 0.392142
296 4 0.229391 0.933476 0.607858
297 4 0.520609 0.433476 0.607858
298 4 0.479391 0.566524 0.392142
299 4 0.729391 0.566524 0.107858
300 4 0.770609 0.433476 0.892142
301 4 0.479391 0.933476 0.892142
302 4 0.520609 0.0665239 0.107858
303 4 0.770609 0.0665239 0.392142
304 4 0.729391 0.933476 0.607858
305 4 0.938466 0.356307 0.250827
306 4 0.0615336 0.643693 0.749173
307 4 0.311534 0.643693 0.750827
308 4 0.188466 0.356307 0.249173
309 4 0.0615335 0.856307 0.249173
310 4 0.938466 0.143693 0.750827
311 4 0.188466 0.143693 0.749173
312 4 0.311534 0.856307 0.250827
313 4 0.438466 0.356307 0.250827
314 4 0.561534 0.643693 0.749173
315 4 0.811534 0.643693 0.750827
316 4 0.688466 0.356307 0.249173
317 4 0.561534 0.856307 0.249173
318 4 0.438466 0.143693 0.750827
319 4 0.688466 0.143693 0.749173
320 4 0.811534 0.856307 0.250827
321 4 0.985161 0.477477 0.134325
322 4 0.014839 0.522523 0.865675
323 4 0.264839 0.522523 0.634325
324 4 0.235161 0.477477 0.365675
325 4 0.014839 0.977477 0.365675
326 4 0.985161 0.0225229 0.634325
327 4 0.235161 0.0225229 0.865675
328 4 0.264839 0.977477 0.134325
329 4 0.485161 0.477477 0.134325
330 4 0.514839 0.522523 0.865675
331 4 0.764839 0.522523 0.634325
332 4 0.735161 0.477477 0.365675
333 4 0.514839 0.977477 0.365675
334 4 0.485161 0.022523 0.634325
335 4 0.735161 0.022523 0.865675
336 4 0.764839 0.977477 0.134325
ITEM: TIMESTEP
1000
ITEM: NUMBER OF ATOMS
336
ITEM: BOX BOUNDS xy xz yz pp pp pp
-1.1765192439217803e-01 2.6482167661669131e+01 -2.5698155517526793e-02
1.8395598762302434e-01 1.1498377387380520e+01 2.6213572394417548e-02
1.6844843366991658e-01 1.0540551200130093e+01 1.0833301640351509e-01
ITEM: ATOMS id type xs ys zs
1 1 0.0742297 0.389257 0.459927
2 1 0.902461 0.594523 0.562256
3 1 0.166209 0.626871 0.973723
4 1 0.335714 0.37853 0.0397718
5 1 0.915012 0.893017 0.0578698
6 1 0.0952886 0.116186 0.962187
7 1 0.329626 0.0825852 0.556124
8 1 0.151141 0.908433 0.456478
9 1 0.59017 0.378479 0.449942
10 1 0.421651 0.594108 0.538721
11 1 0.670919 0.593612 0.930744
12 1 0.845312 0.400808 0.0601034
13 1 0.401149 0.891564 0.0551507
14 1 0.572885 0.109046 0.962523
15 1 0.829648 0.0981959 0.556788
16 1 0.665113 0.854828 0.44838
17 1 0.0192202 0.253653 0.327896
18 1 0.976234 0.738232 0.624102
19 1 0.229572 0.754875 0.842134
20 1 0.26702 0.2666 0.1751
21 1 0.978569 0.751038 0.177905
22 1 0.0198603 0.23912 0.86589
23 1 0.282754 0.253018 0.663582
24 1 0.224809 0.777705 0.364528
25 1 0.523826 0.244861 0.333732
26 1 0.487709 0.726159 0.662615
27 1 0.722757 0.737914 0.794422
28 1 0.773859 0.269648 0.146608
29 1 0.469162 0.749952 0.14701
30 1 0.516328 0.233103 0.816158
31 1 0.769874 0.241366 0.689968
32 1 0.731394 0.761337 0.289
33 1 0.0710982 0.421975 0.216561
34 1 0.926617 0.630492 0.798867
35 1 0.182119 0.590983 0.726554
36 1 0.332894 0.389336 0.292094
37 1 0.942322 0.926977 0.3043
38 1 0.0742279 0.115719 0.715071
39 1 0.321685 0.0842295 0.798054
40 1 0.172097 0.907366 0.215599
41 1 0.565879 0.421784 0.203152
42 1 0.42947 0.583714 0.785803
43 1 0.680425 0.559047 0.681494
44 1 0.815411 0.415633 0.30145
45 1 0.423437 0.883938 0.298572
46 1 0.581095 0.0967197 0.715019
47 1 0.823825 0.0829359 0.801207
48 1 0.660637 0.904205 0.202624
49 2 0.109514 0.337974 0.441763
50 2 0.868928 0.65629 0.541732
51 2 0.131526 0.684951 0.985255
52 2 0.362551 0.307427 0.0108869
53 2 0.877654 0.851676 0.0360363
54 2 0.127795 0.18003 0.994471
55 2 0.36926 0.110606 0.548628
56 2 0.12121 0.838511 0.463846
57 2 0.625 0.334097 0.493514
58 2 0.394767 0.617702 0.457014
59 2 0.637922 0.635453 0.979139
60 2 0.880007 0.346404 0.0403376
61 2 0.364767 0.854325 0.0289133
62 2 0.601688 0.170209 0.00525615
63 2 0.858815 0.118194 0.481268
64 2 0.635086 0.789559 0.478844
65 2 0.0736925 0.438955 0.552956
66 2 0.900854 0.513532 0.497349
67 2 0.169121 0.554615 0.0528489
68 2 0.336526 0.446492 0.955401
69 2 0.922837 0.969259 0.98817
70 2 0.0949706 0.0376944 0.0318844
71 2 0.322555 0.0122243 0.480101
72 2 0.146049 0.976466 0.535966
73 2 0.579451 0.453699 0.512468
74 2 0.438241 0.50581 0.504892
75 2 0.683967 0.522858 0.998742
76 2 0.847375 0.481731 0.998469
77 2 0.407651 0.973319 0.991429
78 2 0.5607 0.03763 0.0359177
79 2 0.812526 0.0183384 0.512669
80 2 0.670238 0.922216 0.529811
81 2 0.979757 0.225338 0.335023
82 2 0.0166389 0.742186 0.592426
83 2 0.266845 0.800377 0.848937
84 2 0.222913 0.250703 0.170507
85 2 0.0139486 0.698239 0.160051
86 2 0.978101 0.249478 0.885972
87 2 0.246141 0.30432 0.654208
88 2 0.263939 0.749228 0.397606
89 2 0.483103 0.207839 0.347891
90 2 0.528367 0.749257 0.660071
91 2 0.755247 0.80157 0.793812
92 2 0.734849 0.234767 0.111964
93 2 0.510003 0.721793 0.12504
94 2 0.474568 0.252789 0.819363
95 2 0.731585 0.283761 0.670704
96 2 0.773956 0.749543 0.282481
97 2 0.0418028 0.171918 0.303983
98 2 0.967058 0.838816 0.627335
99 2 0.203564 0.827136 0.817111
100 2 0.283756 0.172611 0.199532
101 2 0.950929 0.679301 0.203788
102 2 0.0316532 0.334281 0.85169
103 2 0.309231 0.331034 0.693071
104 2 0.203259 0.692729 0.357188
105 2 0.548977 0.167857 0.310996
106 2 0.466377 0.810785 0.691005
107 2 0.68505 0.790743 0.776711
108 2 0.801529 0.1932 0.157276
109 2 0.449515 0.661606 0.163137
110 2 0.536966 0.323659 0.805608
111 2 0.794012 0.319508 0.713892
112 2 0.718248 0.669008 0.271032
113 2 0.106441 0.377253 0.184129
114 2 0.900351 0.696971 0.843445
115 2 0.153385 0.625293 0.652627
116 2 0.358624 0.321369 0.33177
117 2 0.918307 0.918133 0.396945
118 2 0.100145 0.181155 0.665847
119 2 0.361714 0.120125 0.816163
120 2 0.145048 0.844529 0.168531
121 2 0.586171 0.420301 0.105794
122 2 0.405131 0.630673 0.861236
123 2 0.65019 0.579128 0.606886
124 2 0.840709 0.362229 0.36972
125 2 0.395701 0.827 0.351116
126 2 0.610546 0.154092 0.671003
127 2 0.852142 0.138944 0.853225
128 2 0.628035 0.848702 0.162802
129 2 0.0605039 0.496425 0.143657
130 2 0.934062 0.572208 0.88435
131 2 0.193268 0.499307 0.695628
132 2 0.334933 0.460392 0.368539
133 2 0.96381 0.0140266 0.319237
134 2 0.0656503 0.0435643 0.644622
135 2 0.308977 0.0268261 0.885718
136 2 0.182786 0.977999 0.141073
137 2 0.546547 0.510017 0.198302
138 2 0.43836 0.491542 0.826338
139 2 0.697476 0.470247 0.651425
140 2 0.801284 0.499482 0.356673
141 2 0.433919 0.958764 0.370917
142 2 0.579391 0.016822 0.644878
143 2 0.816478 0.99839 0.860513
144 2 0.661755 0.9807 0.135677
145 3 0.0783131 0.476532 0.345924
146 3 0.89806 0.558754 0.700487
147 3 0.155756 0.560418 0.853006
148 3 0.353467 0.435184 0.16503
149 3 0.906212 0.94717 0.187746
150 3 0.103208 0.067919 0.828008
151 3 0.325514 0.00970289 0.680121
152 3 0.143535 0.960406 0.32593
153 3 0.600523 0.436679 0.315747
154 3 0.398543 0.559352 0.664411
155 3 0.655185 0.528446 0.811906
156 3 0.84806 0.458008 0.19226
157 3 0.395825 0.945152 0.188003
158 3 0.595639 0.0498 0.845037
159 3 0.850102 0.0481478 0.680792
160 3 0.647232 0.934118 0.340868
161 3 0.033175 0.299943 0.462157
162 3 0.94577 0.677737 0.521967
163 3 0.211118 0.707664 0.973142
164 3 0.287239 0.308804 0.0477954
165 3 0.955667 0.797683 0.0544089
166 3 0.0487767 0.187695 0.983552
167 3 0.296205 0.190309 0.541996
168 3 0.197007 0.830821 0.480993
169 3 0.546242 0.293589 0.455648
170 3 0.467183 0.676881 0.539531
171 3 0.710057 0.691619 0.925188
172 3 0.802202 0.321057 0.031548
173 3 0.442525 0.805833 0.0316263
174 3 0.527471 0.186513 0.949734
175 3 0.791536 0.20018 0.560968
176 3 0.713408 0.786851 0.424073
177 3 0.0308671 0.32515 0.208118
178 3 0.974575 0.697726 0.759275
179 3 0.225104 0.675936 0.725975
180 3 0.28047 0.334254 0.292897
181 3 0.979391 0.829986 0.294776
182 3 0.0254803 0.18395 0.739049
183 3 0.28615 0.188047 0.793687
184 3 0.220871 0.835852 0.235351
185 3 0.527272 0.32298 0.213933
186 3 0.477985 0.655601 0.780582
187 3 0.720455 0.652105 0.681765
188 3 0.770997 0.336433 0.27289
189 3 0.469701 0.812722 0.273201
190 3 0.530597 0.160536 0.701412
191 3 0.775234 0.154957 0.799975
192 3 0.711003 0.843177 0.185323
193 3 0.126013 0.554633 0.344682
194 3 0.896786 0.422143 0.721245
195 3 0.13032 0.436426 0.856065
196 3 0.368015 0.568505 0.154649
197 3 0.884814 0.0729101 0.182434
198 3 0.115987 0.933665 0.824884
199 3 0.371016 0.924711 0.690362
200 3 0.139604 0.100561 0.319955
201 3 0.620601 0.56371 0.313869
202 3 0.38389 0.425605 0.660203
203 3 0.636145 0.401107 0.828979
204 3 0.86537 0.587654 0.20405
205 3 0.382336 0.0774088 0.19752
206 3 0.603926 0.913257 0.851982
207 3 0.865523 0.913573 0.678143
208 3 0.633591 0.0672154 0.362209
209 3 0.987693 0.345888 0.536942
210 3 0.984315 0.6124 0.43763
211 3 0.257094 0.660282 0.0495258
212 3 0.243827 0.379188 0.980914
213 3 0.99856 0.835566 0.963895
214 3 0.009822 0.108609 0.0537527
215 3 0.248327 0.154507 0.465665
216 3 0.236823 0.888233 0.562038
217 3 0.504781 0.359697 0.527973
218 3 0.509681 0.626549 0.454663
219 3 0.756485 0.651183 0.999762
220 3 0.763647 0.384083 0.941784
221 3 0.484407 0.86485 0.948188
222 3 0.479545 0.138515 0.0182605
223 3 0.745582 0.16992 0.480751
224 3 0.756731 0.847506 0.497204
225 3 0.981689 0.375973 0.152512
226 3 0.0223362 0.624869 0.796905
227 3 0.27513 0.606674 0.699784
228 3 0.240413 0.43079 0.320193
229 3 0.0321091 0.884208 0.326847
230 3 0.979264 0.104273 0.70692
231 3 0.233681 0.135341 0.830296
232 3 0.26788 0.911977 0.208784
233 3 0.476915 0.380009 0.177957
234 3 0.525641 0.579073 0.812678
235 3 0.770799 0.589842 0.656823
236 3 0.721728 0.410181 0.286784
237 3 0.516493 0.895416 0.285072
238 3 0.487581 0.0746493 0.660784
239 3 0.729454 0.0710357 0.815079
240 3 0.750219 0.93823 0.1517
241 4 0.13897 0.601325 0.235766
242 4 0.90835 0.381844 0.835621
243 4 0.12989 0.377812 0.750365
244 4 0.383065 0.624891 0.256457
245 4 0.890655 0.139165 0.282193
246 4 0.114175 0.879279 0.716836
247 4 0.380334 0.883714 0.804148
248 4 0.164307 0.153561 0.229772
249 4 0.617135 0.635738 0.215559
250 4 0.390198 0.360859 0.759361
251 4 0.635898 0.32674 0.735137
252 4 0.854177 0.649369 0.303697
253 4 0.387242 0.123026 0.310122
254 4 0.604062 0.857726 0.742894
255 4 0.876067 0.862582 0.785095
256 4 0.62991 0.131889 0.261984
257 4 0.145765 0.587837 0.45334
258 4 0.871585 0.354881 0.647601
259 4 0.110246 0.393277 0.96055
260 4 0.381989 0.611959 0.0451373
261 4 0.863399 0.104866 0.077886
262 4 0.1302 0.879932 0.925615
263 4 0.389653 0.880442 0.587861
264 4 0.108317 0.155831 0.391888
265 4 0.646583 0.595294 0.414144
266 4 0.359287 0.386684 0.560522
267 4 0.626487 0.359928 0.942218
268 4 0.886809 0.638001 0.104565
269 4 0.359541 0.132709 0.105831
270 4 0.628093 0.871672 0.94917
271 4 0.884802 0.872531 0.57456
272 4 0.622565 0.104557 0.475067
273 4 0.94357 0.317643 0.494187
274 4 0.0310255 0.641784 0.447418
275 4 0.299428 0.714032 0.0367011
276 4 0.197585 0.354284 0.999822
277 4 0.043311 0.797541 0.990304
278 4 0.963011 0.13702 0.0436745
279 4 0.208683 0.214342 0.493764
280 4 0.282698 0.849279 0.556792
281 4 0.45955 0.323022 0.506247
282 4 0.553999 0.672567 0.458605
283 4 0.800091 0.69661 0.96967
284 4 0.718237 0.342954 0.942552
285 4 0.529459 0.823207 0.960813
286 4 0.435227 0.172544 0.983258
287 4 0.706488 0.236822 0.496961
288 4 0.801783 0.835002 0.45647
289 4 0.991536 0.413591 0.635831
290 4 0.970227 0.522194 0.370284
291 4 0.250039 0.569173 0.125821
292 4 0.257702 0.454713 0.895209
293 4 0.990526 0.908606 0.872748
294 4 0.0254568 0.0272128 0.132782
295 4 0.254017 0.0976393 0.357579
296 4 0.227844 0.974908 0.638393
297 4 0.51328 0.441842 0.607757
298 4 0.500497 0.563122 0.354248
299 4 0.75244 0.584501 0.101074
300 4 0.776065 0.471046 0.867892
301 4 0.472744 0.93635 0.856059
302 4 0.484889 0.0578669 0.104386
303 4 0.746167 0.0833036 0.401733
304 4 0.749035 0.910345 0.600078
305 4 0.939855 0.331456 0.190191
306 4 0.062825 0.626364 0.728405
307 4 0.317402 0.654128 0.729028
308 4 0.193351 0.41705 0.295133
309 4 0.0723301 0.826923 0.296591
310 4 0.934849 0.128405 0.748594
311 4 0.19471 0.19267 0.791587
312 4 0.310313 0.878486 0.255689
313 4 0.436337 0.359426 0.243856
314 4 0.570501 0.623153 0.80838
315 4 0.813001 0.635586 0.685967
316 4 0.679748 0.361364 0.258568
317 4 0.559845 0.870551 0.238145
318 4 0.441921 0.107874 0.665241
319 4 0.68502 0.106271 0.787215
320 4 0.796825 0.912127 0.153267
321 4 0.981564 0.46031 0.0655646
322 4 0.0201612 0.557418 0.895128
323 4 0.270542 0.511515 0.632562
324 4 0.255367 0.524755 0.376111
325 4 0.0313708 0.981495 0.392592
326 4 0.983903 0.0307078 0.614063
327 4 0.230805 0.0370464 0.894162
328 4 0.268923 0.984187 0.111579
329 4 0.476887 0.466026 0.0934999
330 4 0.519028 0.482252 0.875939
331 4 0.76952 0.489087 0.596367
332 4 0.726964 0.503823 0.357667
333 4 0.511184 0.990363 0.352021
334 4 0.501959 0.990923 0.582993
335 4 0.73692 0.967077 0.868495
336 4 0.734641 0.0411323 0.112262
ITEM: TIMESTEP
2000
ITEM: NUMBER OF ATOMS
336
ITEM: BOX BOUNDS xy xz yz pp pp pp
-3.5700152594437001e-01 2.6822751285694164e+01 -2.9970479335438335e-02
2.1930915680201046e-01 1.1462564155067032e+01 1.3171991868508556e-01
-4.7956244601153664e-02 1.0756955878401140e+01 1.0787295326901758e-01
ITEM: ATOMS id type xs ys zs
1 1 0.0754519 0.424931 0.431875
2 1 0.886855 0.634866 0.625057
3 1 0.163454 0.631226 0.936313
4 1 0.347107 0.362239 0.103296
5 1 0.916419 0.870231 0.0663629
6 1 0.11076 0.127637 0.895188
7 1 0.321331 0.0663261 0.588411
8 1 0.139629 0.894836 0.427413
9 1 0.61555 0.340093 0.3643
10 1 0.401339 0.633041 0.601766
11 1 0.669003 0.578972 0.908647
12 1 0.86311 0.396074 0.0974978
13 1 0.391059 0.869062 0.130692
14 1 0.573977 0.105278 0.910048
15 1 0.848567 0.140288 0.604999
16 1 0.664912 0.8371 0.394476
17 1 0.0380052 0.274194 0.290613
18 1 0.972261 0.744101 0.628227
19 1 0.225819 0.750834 0.795084
20 1 0.279169 0.269848 0.236516
21 1 0.968705 0.727517 0.192214
22 1 0.0268258 0.232791 0.880972
23 1 0.295098 0.225641 0.735706
24 1 0.21889 0.764864 0.367225
25 1 0.536879 0.238772 0.280872
26 1 0.47062 0.738918 0.706568
27 1 0.716003 0.718672 0.763366
28 1 0.781024 0.278201 0.130165
29 1 0.472344 0.77143 0.191775
30 1 0.528499 0.236494 0.751808
31 1 0.768477 0.220262 0.703768
32 1 0.736955 0.76722 0.257315
33 1 0.067642 0.466776 0.20161
34 1 0.940279 0.633536 0.824085
35 1 0.165829 0.600837 0.699202
36 1 0.338113 0.418811 0.335621
37 1 0.920242 0.887795 0.307018
38 1 0.0670394 0.144867 0.691211
39 1 0.316679 0.0267658 0.830584
40 1 0.177742 0.904873 0.210846
41 1 0.584303 0.391359 0.145614
42 1 0.422721 0.576425 0.829544
43 1 0.652985 0.570005 0.674552
44 1 0.829362 0.371085 0.310289
45 1 0.42606 0.912205 0.346368
46 1 0.588331 0.0805498 0.669103
47 1 0.829124 0.106141 0.830636
48 1 0.661895 0.88248 0.164985
49 2 0.115741 0.390839 0.429551
50 2 0.856661 0.703992 0.639412
51 2 0.129532 0.665395 0.991895
52 2 0.373433 0.287375 0.101809
53 2 0.88409 0.847844 0.0026588
54 2 0.139863 0.204939 0.890977
55 2 0.360551 0.0839848 0.562196
56 2 0.101988 0.84678 0.430919
57 2 0.636755 0.259455 0.333587
58 2 0.364721 0.680981 0.577303
59 2 0.640842 0.620117 0.974349
60 2 0.895781 0.333052 0.0727731
61 2 0.361382 0.798944 0.12794
62 2 0.603402 0.150599 0.966688
63 2 0.877323 0.21385 0.589595
64 2 0.638777 0.759946 0.417503
65 2 0.0700467 0.4621 0.52852
66 2 0.867613 0.562911 0.567256
67 2 0.181705 0.556499 0.985328
68 2 0.352146 0.415987 0.0117718
69 2 0.935075 0.95158 0.0194586
70 2 0.128867 0.0572732 0.959737
71 2 0.306076 0.0157449 0.512552
72 2 0.139019 0.960996 0.508075
73 2 0.633911 0.379757 0.446318
74 2 0.401489 0.567218 0.520622
75 2 0.687779 0.497399 0.953698
76 2 0.873299 0.472662 0.0366516
77 2 0.378977 0.930864 0.0557642
78 2 0.557217 0.0367252 0.97287
79 2 0.857006 0.084434 0.518405
80 2 0.662289 0.892769 0.480122
81 2 0.00525185 0.217243 0.293339
82 2 0.0053738 0.753216 0.566565
83 2 0.26705 0.762394 0.79466
84 2 0.238721 0.257283 0.223037
85 2 0.00870976 0.702671 0.193168
86 2 0.989064 0.234448 0.929176
87 2 0.266596 0.307135 0.74385
88 2 0.256178 0.743091 0.41104
89 2 0.496183 0.226192 0.308066
90 2 0.510996 0.767484 0.700399
91 2 0.756007 0.749006 0.743089
92 2 0.740022 0.288219 0.0848965
93 2 0.511383 0.751534 0.157699
94 2 0.492117 0.285058 0.745779
95 2 0.727884 0.23583 0.678895
96 2 0.779275 0.776005 0.259057
97 2 0.0650759 0.204135 0.274694
98 2 0.958084 0.833437 0.656774
99 2 0.212081 0.843249 0.765287
100 2 0.293814 0.17919 0.27482
101 2 0.95107 0.639618 0.213752
102 2 0.0335541 0.332441 0.857202
103 2 0.333401 0.269436 0.741508
104 2 0.205473 0.67437 0.3393
105 2 0.551994 0.148471 0.249289
106 2 0.452114 0.821531 0.74853
107 2 0.692235 0.800977 0.758178
108 2 0.794105 0.181058 0.140881
109 2 0.457114 0.674701 0.224085
110 2 0.559014 0.300498 0.733054
111 2 0.781434 0.311066 0.731478
112 2 0.730149 0.668104 0.231679
113 2 0.107053 0.438178 0.168769
114 2 0.922246 0.70985 0.877924
115 2 0.140973 0.664403 0.650074
116 2 0.362257 0.352279 0.389015
117 2 0.889156 0.842873 0.359166
118 2 0.0850369 0.238006 0.669676
119 2 0.3581 0.0436419 0.850166
120 2 0.156081 0.833474 0.157415
121 2 0.600583 0.306612 0.104376
122 2 0.400686 0.642224 0.88963
123 2 0.623032 0.640854 0.647738
124 2 0.853149 0.284896 0.328755
125 2 0.406451 0.84869 0.417425
126 2 0.616642 0.152188 0.648626
127 2 0.847598 0.185909 0.88081
128 2 0.641176 0.806885 0.123694
129 2 0.06028 0.536371 0.130751
130 2 0.953835 0.575674 0.903512
131 2 0.162856 0.526654 0.632996
132 2 0.339035 0.492226 0.410529
133 2 0.926368 0.975059 0.359737
134 2 0.0570952 0.104258 0.600421
135 2 0.305849 0.963328 0.9106
136 2 0.189408 0.975061 0.135294
137 2 0.582869 0.458552 0.0683935
138 2 0.42978 0.492822 0.887932
139 2 0.64926 0.498753 0.600337
140 2 0.82274 0.427852 0.395867
141 2 0.4325 0.998731 0.401861
142 2 0.59876 0.0107632 0.597109
143 2 0.834737 0.0281283 0.897187
144 2 0.655072 0.958689 0.0996055
145 3 0.071846 0.518144 0.329738
146 3 0.897478 0.583049 0.753237
147 3 0.141703 0.573008 0.822449
148 3 0.360914 0.441706 0.210611
149 3 0.895087 0.91724 0.190676
150 3 0.106691 0.0837839 0.763222
151 3 0.31802 0.9808 0.70074
152 3 0.141353 0.954768 0.30524
153 3 0.615705 0.422231 0.251955
154 3 0.391855 0.557382 0.715861
155 3 0.639756 0.521633 0.802224
156 3 0.865705 0.436553 0.231871
157 3 0.387526 0.938064 0.247592
158 3 0.602082 0.0527592 0.800453
159 3 0.862312 0.0771559 0.721799
160 3 0.640949 0.910365 0.287246
161 3 0.0472674 0.312305 0.422262
162 3 0.929709 0.687328 0.554463
163 3 0.203225 0.727001 0.919896
164 3 0.298757 0.293611 0.108691
165 3 0.953083 0.771985 0.0661208
166 3 0.0671974 0.1847 0.962848
167 3 0.298423 0.186302 0.600821
168 3 0.182388 0.815037 0.4636
169 3 0.565495 0.280804 0.390572
170 3 0.446403 0.711258 0.588341
171 3 0.708264 0.673262 0.892027
172 3 0.820108 0.329972 0.0441024
173 3 0.438083 0.804541 0.0917182
174 3 0.538027 0.205155 0.886951
175 3 0.80054 0.206299 0.590032
176 3 0.715737 0.786786 0.387231
177 3 0.0354195 0.358235 0.18127
178 3 0.982923 0.688437 0.753226
179 3 0.216495 0.661027 0.694294
180 3 0.288218 0.358741 0.339911
181 3 0.965674 0.806495 0.303272
182 3 0.0198805 0.185628 0.753044
183 3 0.289798 0.144117 0.845755
184 3 0.225289 0.8423 0.254534
185 3 0.535367 0.324422 0.173023
186 3 0.469945 0.645691 0.809667
187 3 0.700335 0.640452 0.656971
188 3 0.779727 0.328095 0.259241
189 3 0.472368 0.848203 0.305392
190 3 0.539895 0.144805 0.654272
191 3 0.775788 0.141653 0.8132
192 3 0.716372 0.845276 0.156297
193 3 0.116341 0.605338 0.336154
194 3 0.901523 0.445826 0.748143
195 3 0.137123 0.43341 0.83443
196 3 0.360214 0.577628 0.17926
197 3 0.888975 0.055119 0.18312
198 3 0.101032 0.946414 0.758779
199 3 0.355023 0.875578 0.692426
200 3 0.147884 0.092682 0.312899
201 3 0.613572 0.557768 0.285999
202 3 0.387552 0.423011 0.684678
203 3 0.645454 0.385979 0.804611
204 3 0.85798 0.574705 0.242314
205 3 0.381498 0.0729897 0.229313
206 3 0.612119 0.91728 0.817836
207 3 0.867892 0.940181 0.70946
208 3 0.632661 0.0458041 0.307273
209 3 0.000906486 0.307906 0.510535
210 3 0.950652 0.595697 0.462059
211 3 0.243909 0.713585 0.0186559
212 3 0.26044 0.357878 0.0275655
213 3 0.000816454 0.810237 0.995203
214 3 0.0457924 0.10266 0.063686
215 3 0.247137 0.19034 0.537773
216 3 0.213539 0.878436 0.563035
217 3 0.532917 0.354243 0.479145
218 3 0.486126 0.670554 0.490574
219 3 0.757248 0.646327 0.961367