LAMMPS data file via write_data, version 15 Apr 2020, timestep = 80000

336 atoms
4 atom types

-7.9224044535797233e-02 2.6443224364935794e+01 xlo xhi
3.1012225701211449e-01 1.1263878101588382e+01 ylo yhi
1.0045017436630665e-02 1.0698954616363988e+01 zlo zhi
1.5147210165078748e-01 2.3460305200982431e-01 -2.6994791908132082e-01 xy xz yz

Masses

1 12.0107
2 1.00794
3 14.0067
4 15.9994

Atoms # full

1 1 1 6.4016204206633360e-03 1.6234614250255088e+00 4.7965218410593069e+00 4.0501725812929870e+00 0 0 0
2 1 1 1.5290161199632949e-02 2.3452955337524379e+01 6.9451828808033769e+00 6.0111593607902689e+00 0 0 0
3 1 1 -6.8460908330669756e-03 4.8237701366492400e+00 7.2201810146274186e+00 1.0028215048647432e+01 0 0 0
4 1 1 6.2385230505928799e-03 9.6892479419716242e+00 4.6424598477459922e+00 1.8788249838460220e+00 0 0 0
5 1 1 -5.5244614794999931e-03 2.4116901627620265e+01 9.7391902071453575e+00 5.1596275359688260e-01 0 0 0
6 1 1 2.3662809337649537e-02 2.8932550423944856e+00 1.1226124179631884e+00 8.7603677751381639e+00 0 0 0
7 1 1 1.4974568976353006e-03 8.5840835567564557e+00 1.2445911935325875e+00 6.6967030023744138e+00 0 0 0
8 1 1 -5.6960675978478745e-04 3.8181165681452107e+00 1.0325706411077341e+01 4.5122244262490989e+00 0 0 0
9 1 1 1.1435348191922682e-02 1.6456235012089376e+01 4.4286700204725236e+00 4.5145403691512414e+00 0 0 0
10 1 1 -1.4269701801277759e-02 1.1528571813983080e+01 6.8815098044012872e+00 6.6432292728764120e+00 0 0 0
11 1 1 9.1361433658776522e-03 1.7001538945094314e+01 6.5716356546236367e+00 9.2449563388874765e+00 0 0 0
12 1 1 4.2182711359499345e-03 2.2019144123066845e+01 4.3627927672459652e+00 9.3299232975980376e-02 0 0 0
13 1 1 1.0407820966582567e-02 1.0545936902317155e+01 1.0233126966138913e+01 2.0199169735602296e+00 0 0 0
14 1 1 -1.1551763736342906e-02 1.5616674262136501e+01 1.3063579710161788e+00 1.0179653683932766e+01 0 0 0
15 1 1 2.9845725309621957e-05 2.2915387985283822e+01 1.4163765491944162e+00 6.0870003270162520e+00 0 0 0
16 1 1 -2.5247616270603554e-03 1.8050750374990056e+01 9.6643278641261112e+00 4.3433761073460611e+00 0 0 0
17 1 1 2.4059658716131145e-03 4.7217545318196463e-01 2.9840269246721354e+00 2.5718468327584065e+00 0 0 0
18 1 1 2.8057561018009561e-04 2.5605688001217935e+01 8.1862074720066982e+00 6.6245188389353391e+00 0 0 0
19 1 1 1.1873494796025091e-02 6.3500118596141260e+00 8.5060447373941841e+00 8.5717898408959883e+00 0 0 0
20 1 1 -3.2249912227054305e-03 7.3712589274200422e+00 3.5682714576778545e+00 2.3158973281482509e+00 0 0 0
21 1 1 1.8420687087629766e-02 2.5664764646410450e+01 8.1961802100875829e+00 1.9650079503376707e+00 0 0 0
22 1 1 -3.2276762791578414e-03 5.2518697100433243e-01 2.1197721241007725e+00 9.1230415436223780e+00 0 0 0
23 1 1 6.6084227092200153e-03 7.3688212538017313e+00 2.7598059605109397e+00 8.3296093051392255e+00 0 0 0
24 1 1 1.1825520722412663e-02 5.9465336050622133e+00 9.0092379980712813e+00 3.8639707273755866e+00 0 0 0
25 1 1 6.5415932569251496e-03 1.4218698046333776e+01 3.3302316333976578e+00 3.9363591798628570e+00 0 0 0
26 1 1 7.9795815625823240e-03 1.2916972125735196e+01 8.0323568800179572e+00 8.4874583605222398e+00 0 0 0
27 1 1 6.1072234918961039e-03 1.9177590730196293e+01 7.9891812183458342e+00 9.0684122791432031e+00 0 0 0
28 1 1 1.5464251659934560e-02 2.0688990174100621e+01 2.9164092887208333e+00 1.7818693809563448e+00 0 0 0
29 1 1 7.5770205921676798e-03 1.2693600291814153e+01 8.9208527723638422e+00 1.5917126016957219e+00 0 0 0
30 1 1 9.9125524210488015e-03 1.3790097001017839e+01 2.6344349585003828e+00 8.8674505903578158e+00 0 0 0
31 1 1 -4.8978383998089028e-03 2.0585794881383695e+01 2.5171929905676449e+00 6.4460303608379794e+00 0 0 0
32 1 1 1.8542450642870474e-02 1.9532627995929865e+01 8.4571633968251074e+00 2.6067546827571495e+00 0 0 0
33 1 1 -5.8372784251533062e-03 1.7406722876927081e+00 4.9507716882846147e+00 1.5179727863040564e+00 0 0 0
34 1 1 -7.7022728741601605e-03 2.4540284981497955e+01 6.6715250485541056e+00 8.3580219401726303e+00 0 0 0
35 1 1 2.5460818982631951e-03 4.9083005783880305e+00 6.7846431939640066e+00 7.4338574871133574e+00 0 0 0
36 1 1 -1.7604805013432125e-02 8.6013889392738854e+00 4.8258627740185025e+00 4.2297897133371070e+00 0 0 0
37 1 1 -6.8058541384045518e-03 2.4681266413795303e+01 1.0359029363341518e+01 2.9878654302664120e+00 0 0 0
38 1 1 -8.7379261138904353e-03 1.3942386071038233e+00 1.3220830702869271e+00 6.8205916068346610e+00 0 0 0
39 1 1 -2.0989592207675024e-02 8.4158386458801431e+00 5.6702207719469433e-01 9.1655515800315825e+00 0 0 0
40 1 1 8.8401871026925014e-03 4.7550107413977720e+00 1.0501105471454585e+01 2.1303161624296609e+00 0 0 0
41 1 1 -6.2872551544715487e-03 1.5508766002261352e+01 4.6386546392972043e+00 2.1537841679980128e+00 0 0 0
42 1 1 2.2816521431366726e-02 1.0959174350670825e+01 6.5454604224114670e+00 9.1378811174693304e+00 0 0 0
43 1 1 -1.9777667284579283e-02 1.8286212195483660e+01 6.7443329323292565e+00 7.0114798115562316e+00 0 0 0
44 1 1 -5.3560116392895735e-04 2.2484034951299193e+01 4.5514987706406158e+00 2.5772169153606082e+00 0 0 0
45 1 1 3.4398856998527905e-03 1.2348757876217372e+01 9.9675547152346251e+00 3.9021753198613855e+00 0 0 0
46 1 1 2.1533178988601132e-02 1.5664870003012997e+01 1.3902115568588314e+00 7.6058546717473163e+00 0 0 0
47 1 1 -2.0314978525157991e-02 2.1761421383625176e+01 1.4519404122880770e+00 8.3574407371125439e+00 0 0 0
48 1 1 1.3139693294176739e-02 1.7768651268267195e+01 1.0098554148600559e+01 1.8275539257009268e+00 0 0 0
49 1 2 2.4019782516574517e-01 2.6792044371759820e+00 4.3556573618415744e+00 4.2586738450733028e+00 0 0 0
50 1 2 2.7904631332680935e-01 2.2564745935476594e+01 7.6520787007495583e+00 6.2254987660543408e+00 0 0 0
51 1 2 2.4036426057450683e-01 3.9551046900828508e+00 7.6842110004242627e+00 1.0591015117402016e+01 0 0 0
52 1 2 2.7481616620721860e-01 1.0382675922132536e+01 3.7677070730239985e+00 2.0368742388281573e+00 0 0 0
53 1 2 2.7363141736729396e-01 2.3057257132853319e+01 9.3672862661618055e+00 2.3214747036307076e-01 0 0 0
54 1 2 2.5807723930743209e-01 3.5502733222378580e+00 1.9783083623729958e+00 8.3175593169993327e+00 0 0 0
55 1 2 2.3847990858969056e-01 9.6602632606394607e+00 1.5902812561291919e+00 6.6723151957604561e+00 0 0 0
56 1 2 2.6003261013308054e-01 2.9695823365357357e+00 9.5556527204742849e+00 4.3587724432663055e+00 0 0 0
57 1 2 2.7342607192410662e-01 1.7215881766644667e+01 3.6243593636375686e+00 4.3744651535255707e+00 0 0 0
58 1 2 2.4068651644058733e-01 1.0689775110986099e+01 7.4522696894121676e+00 6.0595049583705700e+00 0 0 0
59 1 2 2.4579840389943752e-01 1.6209006838094599e+01 7.3938219874886828e+00 9.1830396481292595e+00 0 0 0
60 1 2 2.4736006442606093e-01 2.3097657125019136e+01 3.4148906588611538e+00 1.0304499713152115e+01 0 0 -1
61 1 2 2.6375648675445745e-01 9.7717257664496451e+00 9.3526867981130266e+00 2.1478026357531985e+00 0 0 0
62 1 2 2.2514762351680595e-01 1.6497008907716822e+01 1.8356517697720869e+00 1.0655509809153060e+01 0 0 0
63 1 2 2.7569268821643728e-01 2.3504734915433129e+01 2.3227424915437660e+00 6.1859890999935780e+00 0 0 0
64 1 2 2.5156775624155753e-01 1.7096140443618985e+01 9.1242587092330858e+00 4.7426748890216901e+00 0 0 0
65 1 2 2.7206735175605556e-01 1.4299620988813624e+00 5.4601750127019058e+00 4.9859755128227290e+00 0 0 0
66 1 2 2.4469305747706044e-01 2.3018631441205347e+01 6.2527360727994967e+00 5.2062554132046781e+00 0 0 0
67 1 2 2.6338227427849753e-01 5.1178632487804663e+00 6.3302931642217413e+00 1.0689267081728079e+01 0 0 -1
68 1 2 2.3508295948107358e-01 1.0191431178511243e+01 5.3530110997802822e+00 1.1180973373691907e+00 0 0 1
69 1 2 2.6518483791008451e-01 2.4546915695666463e+01 1.0202511326112992e+01 1.0305803734610585e+01 0 0 0
70 1 2 2.5666423477426203e-01 3.5945949760867131e+00 4.1654707650231404e-01 9.3393078129445506e+00 0 0 -1
71 1 2 2.5644761199234045e-01 8.5796014097157709e+00 7.8941672045586075e-01 5.6572636650190677e+00 0 0 0
72 1 2 2.3652026581233962e-01 3.4055917834712415e+00 1.1115175773243537e+01 5.2546557249495054e+00 0 0 0
73 1 2 2.3044904444062847e-01 1.6984350264363538e+01 5.1125893060146028e+00 5.2892135131706608e+00 0 0 0
74 1 2 2.4648763469529514e-01 1.1923408093053707e+01 6.1724475867485671e+00 5.8801882269950632e+00 0 0 0
75 1 2 2.4989837543833124e-01 1.6662183946570963e+01 5.7337508487787758e+00 9.9220803068926173e+00 0 0 -1
76 1 2 2.6299997050383245e-01 2.2059170884765152e+01 4.8715435938184699e+00 9.9537269497938645e+00 0 0 0
77 1 2 2.5127097707203194e-01 1.0001561257323118e+01 1.1161238869210820e+01 1.5501389049467802e+00 0 0 1
78 1 2 2.6445496519715472e-01 1.5155049842503933e+01 7.6132724524727946e-01 2.2753933788928288e-01 0 0 0
79 1 2 2.3118463995605590e-01 2.3569643403774446e+01 8.2991500908432214e-01 5.3799529330801521e+00 0 0 0
80 1 2 2.6754345200086949e-01 1.8476817627423138e+01 1.0324918497371703e+01 5.1431804297871970e+00 0 0 0
81 1 2 2.5079485792868683e-01 2.5930000626040897e+01 2.5980002758454788e+00 2.5036776034973216e+00 0 0 0
82 1 2 2.8354610253061602e-01 2.6623248607011554e+01 8.4407597122439615e+00 6.1798290110764889e+00 -1 0 0
83 1 2 2.4559536591066261e-01 7.3832245995734800e+00 9.0167303119572715e+00 8.4220183775085609e+00 0 0 0
84 1 2 2.6303878111779133e-01 6.3355240291698856e+00 3.4719675236372964e+00 1.8348031712363955e+00 0 0 0
85 1 2 2.6509102508681498e-01 1.5994181855100353e-01 7.6739490578181835e+00 1.9453040407753110e+00 0 0 0
86 1 2 2.5917418064852915e-01 2.6078718211164933e+01 2.0239134423571326e+00 9.6978758042133180e+00 0 0 0
87 1 2 2.5683545534672186e-01 6.2937988237751821e+00 3.1803353962612126e+00 8.3553248358058383e+00 0 0 0
88 1 2 2.7471875883327790e-01 7.0062796654596315e+00 8.7480381007960375e+00 4.2078241733691026e+00 0 0 0
89 1 2 2.7713607240842020e-01 1.3222469253595605e+01 3.1803627154061478e+00 4.5780977234953220e+00 0 0 0
90 1 2 2.2905054963984423e-01 1.4027345954947338e+01 8.0291744175399575e+00 8.6972361952643702e+00 0 0 0
91 1 2 2.5177933570065686e-01 2.0063388095420368e+01 8.2050789352441704e+00 9.7280039726227123e+00 0 0 0
92 1 2 2.6756307728040607e-01 1.9560499552815756e+01 2.7410487968713175e+00 2.0252685468891811e+00 0 0 0
93 1 2 2.4449529685173579e-01 1.3444085301264124e+01 8.7224133512223148e+00 7.9081568161128279e-01 0 0 0
94 1 2 2.8047620044100424e-01 1.2665479163630044e+01 2.5628758546766108e+00 8.8647718389398520e+00 0 0 0
95 1 2 2.6044177813514141e-01 1.9584612202078251e+01 2.5560136359003893e+00 6.0038834696859888e+00 0 0 0
96 1 2 2.8376619693188582e-01 2.0620964484774138e+01 8.1985989034625533e+00 2.3591623987833659e+00 0 0 0
97 1 2 2.4925043714815084e-01 1.1382224132881780e+00 2.0318335320896970e+00 2.4637973653440275e+00 0 0 0
98 1 2 2.6987302242211558e-01 2.5168557670106431e+01 9.1424652670182880e+00 7.0937070563456048e+00 0 0 0
99 1 2 2.3564597047719488e-01 5.7161458836523362e+00 9.3826956385077853e+00 8.3196944373333288e+00 0 0 0
100 1 2 2.5755539727369509e-01 7.7164274077559396e+00 2.5312467053709069e+00 2.5427469789906403e+00 0 0 0
101 1 2 2.6321932257878272e-01 2.4923695352512318e+01 7.3814395390061174e+00 2.3273785534845235e+00 0 0 0
102 1 2 2.4085290662575554e-01 5.9610356647598262e-01 3.2576979523855565e+00 9.1575161954674655e+00 0 0 0
103 1 2 2.5399808385426603e-01 8.0296642480522973e+00 3.6901368941195773e+00 8.5694602038933887e+00 0 0 0
104 1 2 2.6133371343421696e-01 5.4511139676348446e+00 8.0926656005905855e+00 3.4519992788163925e+00 0 0 0
105 1 2 2.7951760247087531e-01 1.4615998590430276e+01 2.3078273459863490e+00 3.6355723507424127e+00 0 0 0
106 1 2 2.7725704829062137e-01 1.2459035605322693e+01 9.0471366112911760e+00 8.5677939271119854e+00 0 0 0
107 1 2 2.6243171393619591e-01 1.8677834878702335e+01 9.0637526618809563e+00 8.9467865615145676e+00 0 0 0
108 1 2 2.6378477337749723e-01 2.1090609505556735e+01 1.8805328436814186e+00 1.8597899545502676e+00 0 0 0
109 1 2 2.6016570449833815e-01 1.2241916555193686e+01 7.8630125297043181e+00 1.7216312683374762e+00 0 0 0
110 1 2 2.5216796961806598e-01 1.3897432946768724e+01 3.7208371030551532e+00 8.6684579657916920e+00 0 0 0
111 1 2 2.5850263275643504e-01 2.0751258744860781e+01 3.6230974105904412e+00 6.4904770724963292e+00 0 0 0
112 1 2 2.5425291149949203e-01 1.9015182082455716e+01 7.4919410384544447e+00 2.4980433564451019e+00 0 0 0
113 1 2 2.5138875557927531e-01 2.8256382409163088e+00 4.4685422066224882e+00 1.3505732481197015e+00 0 0 0
114 1 2 2.5555438254467627e-01 2.3947764730836781e+01 7.4758996287742852e+00 8.9089810780299672e+00 0 0 0
115 1 2 2.3780581614825080e-01 4.1346324220234090e+00 7.5018072539022702e+00 6.9296860396951230e+00 0 0 0
116 1 2 2.4607642334352633e-01 9.1577160805156748e+00 4.0142932192612477e+00 4.8026772016887103e+00 0 0 0
117 1 2 2.4667321978185944e-01 2.4027422589496059e+01 1.0180560581446349e+01 3.8678175212913066e+00 0 0 0
118 1 2 2.1688424740480527e-01 1.8874684757673463e+00 2.2479325724615027e+00 6.4185847891858057e+00 0 0 0
119 1 2 2.4595167935954626e-01 9.4333167232721529e+00 9.8354022940739849e-01 9.3584271857997230e+00 0 0 0
120 1 2 2.2990016713259542e-01 4.2487070820641959e+00 9.7682140546868688e+00 1.4264851750452288e+00 0 0 0
121 1 2 2.1687233825149863e-01 1.5960434238653193e+01 3.7937534903634513e+00 1.5779896290910074e+00 0 0 0
122 1 2 2.7883543350070389e-01 1.0216270541156806e+01 7.3639957525389379e+00 9.2474383490936738e+00 0 0 0
123 1 2 2.4271561543079601e-01 1.7637239665910567e+01 7.5256132517398902e+00 6.5759773583851890e+00 0 0 0
124 1 2 2.6355434704700409e-01 2.3331927434178965e+01 3.8507370533597149e+00 2.8295410438598738e+00 0 0 0
125 1 2 2.2448506809185986e-01 1.1964344452928875e+01 9.0949973823103427e+00 4.5323394869376932e+00 0 0 0
126 1 2 2.5632919618069994e-01 1.6265391770405977e+01 2.2252242945748382e+00 7.1272073019708326e+00 0 0 0
127 1 2 2.2162974033356675e-01 2.2296404783107285e+01 2.2331568091417546e+00 8.9271525135382070e+00 0 0 0
128 1 2 2.6659019429880138e-01 1.7007743346681476e+01 9.3637806013255780e+00 1.4362291909646607e+00 0 0 0
129 1 2 2.4294490554320247e-01 1.6701488086475060e+00 5.7164236646760083e+00 6.8931091415469525e-01 0 0 0
130 1 2 2.6018747789258689e-01 2.4772630872180358e+01 5.7897761699214696e+00 9.0144450138427636e+00 0 0 0
131 1 2 2.4981253674120421e-01 4.8675875426114201e+00 5.8450777599627877e+00 6.7828610708969830e+00 0 0 0
132 1 2 2.6560950204131328e-01 8.2271241992634980e+00 5.6874261333388940e+00 4.9426386112800422e+00 0 0 0
133 1 2 2.4040648658481678e-01 2.5151639718503972e+01 3.9794157480650100e-01 3.0939078938295550e+00 0 1 0
134 1 2 2.4219401078141906e-01 1.0317393835592059e+00 8.4368002173368839e-01 5.8652154658574789e+00 0 0 0
135 1 2 2.3305178261337620e-01 8.4581565610418608e+00 1.0674308725847926e+01 9.8650369850958057e+00 0 -1 0
136 1 2 2.7013679294992382e-01 4.8718280326692822e+00 3.5337434423943692e-01 1.3758928902967444e+00 0 1 0
137 1 2 2.4726030355868359e-01 1.5419461843507136e+01 5.4532562664855675e+00 1.3504916281509625e+00 0 0 0
138 1 2 2.5266799974978044e-01 1.0780042500045237e+01 5.7702566723148596e+00 9.9904667572849561e+00 0 0 0
139 1 2 2.3439476589671476e-01 1.8678673635780257e+01 6.0948236145455805e+00 6.1647086005586598e+00 0 0 0
140 1 2 2.5032333081515196e-01 2.2522403649040140e+01 5.4604410913295629e+00 3.2283739430763942e+00 0 0 0
141 1 2 2.7425949438688041e-01 1.2873509827863000e+01 1.0624062352700019e+01 4.7213719267660057e+00 0 0 0
142 1 2 2.5636244611933345e-01 1.5776814644552928e+01 5.7265203119163477e-01 6.7648304242522972e+00 0 0 0
143 1 2 2.5862806379444869e-01 2.1569566681337832e+01 6.2091945017996197e-01 9.0741239028803875e+00 0 0 0
144 1 2 2.3569486164442227e-01 1.7588761841634476e+01 1.0977817765430149e+01 1.1666296399388387e+00 0 0 0
145 1 3 -1.5513823264984852e-01 1.6406694039070406e+00 5.7037010555965004e+00 2.8440115993763535e+00 0 0 0
146 1 3 -1.5815958010920539e-01 2.3500450935174989e+01 6.2222328175362662e+00 7.3909430360192125e+00 0 0 0
147 1 3 -1.5882325739006864e-01 4.2722893995027738e+00 6.5409935182912973e+00 8.7876276924224008e+00 0 0 0
148 1 3 -1.5589490752850629e-01 9.5879117330441836e+00 5.3307077876517708e+00 3.2158370589338334e+00 0 0 0
149 1 3 -1.2330196601512032e-01 2.3789062558262685e+01 1.0557141262670584e+01 1.7580286180063902e+00 0 0 0
150 1 3 -2.1029908225923150e-01 2.5933976206053408e+00 5.6660702787399408e-01 7.4259616855408925e+00 0 0 0
151 1 3 -1.7516511139795901e-01 8.5762892513067239e+00 1.3790088474688811e-01 7.6994764149661394e+00 0 0 0
152 1 3 -1.4681016231133207e-01 3.7791552014794769e+00 1.0996914141012288e+01 3.1655354508046898e+00 0 0 0
153 1 3 -1.6107399613545864e-01 1.6529510837648662e+01 5.0770957605908444e+00 3.1497786011799240e+00 0 0 0
154 1 3 -1.3865138631622320e-01 1.0737310871220288e+01 6.1155599182348048e+00 7.7107682475757500e+00 0 0 0
155 1 3 -1.6362713291799816e-01 1.7237918656162321e+01 6.0662345935507709e+00 7.8659157965310458e+00 0 0 0
156 1 3 -1.6480179710352524e-01 2.2780341504673331e+01 5.0113229520341589e+00 1.1764620913610007e+00 0 0 0
157 1 3 -1.5419625705792758e-01 1.1067477391065832e+01 1.0628126130630228e+01 3.3746483389996023e+00 0 0 0
158 1 3 -1.2870611772384899e-01 1.6227415772037570e+01 8.4724529373463398e-01 8.8906356342929556e+00 0 0 0
159 1 3 -1.4722450383837832e-01 2.2784137175128333e+01 7.6701944989632176e-01 7.4126276440964380e+00 0 0 0
160 1 3 -1.5972010627804767e-01 1.7396070913382985e+01 1.0454754646779241e+01 3.2607996358430498e+00 0 0 0
161 1 3 -1.9985000726015162e-01 8.2911349931896683e-01 3.4863937237516951e+00 3.9545682955654775e+00 0 0 0
162 1 3 -1.5688490387621229e-01 2.4670740368518445e+01 7.7104216269558421e+00 5.5735092574881007e+00 0 0 0
163 1 3 -1.9140371659980437e-01 5.9669343377359629e+00 8.1929085129054435e+00 9.9688709615672160e+00 0 0 0
164 1 3 -1.8386286017144413e-01 8.4584877835146894e+00 3.9372718643891549e+00 1.3212330091287512e+00 0 0 0
165 1 3 -1.5257008101811581e-01 2.5174529527331906e+01 8.6611459533371278e+00 6.2531807454050914e-01 0 0 0
166 1 3 -1.6528891416713032e-01 1.8120368525979726e+00 1.6207606385119617e+00 9.6995128346585950e+00 0 0 0
167 1 3 -1.8565369964304576e-01 7.6973125655590566e+00 2.4545554807796117e+00 6.9113881492399685e+00 0 0 0
168 1 3 -1.7210902006999657e-01 5.0597017742644450e+00 9.5383431605904416e+00 4.9237144632130763e+00 0 0 0
169 1 3 -1.9533628289570698e-01 1.5211035345559678e+01 3.7319442574065009e+00 4.9967291410656127e+00 0 0 0
170 1 3 -1.8267702739967662e-01 1.2680461595540761e+01 7.7670608482239061e+00 7.0399257772025630e+00 0 0 0
171 1 3 -1.9198561734614297e-01 1.8168153501623141e+01 7.2502609054085347e+00 9.9316039734882935e+00 0 0 0
172 1 3 -1.8718815697674540e-01 2.0906799941441609e+01 3.3764657880269540e+00 3.4326885507683030e-01 0 0 0
173 1 3 -1.9863314443215163e-01 1.1546518477291585e+01 9.7353840021060520e+00 1.0244624217777933e+00 0 0 0
174 1 3 -1.6913433078383433e-01 1.4449322731210563e+01 2.2512607262694182e+00 1.0188917603108589e+01 0 0 0
175 1 3 -1.6369162470590182e-01 2.1616782018530152e+01 1.9689989372103875e+00 5.4848489628542882e+00 0 0 0
176 1 3 -1.7590802350101256e-01 1.9215949266491258e+01 8.6998728917144650e+00 4.0281660818818077e+00 0 0 0
177 1 3 -1.8707722677695277e-01 7.3109249465022463e-01 3.8667627760679357e+00 1.3707182823192667e+00 0 0 0
178 1 3 -1.5465485143138544e-01 2.5785640462795513e+01 7.3230818940381699e+00 7.8875794486707820e+00 0 0 0
179 1 3 -1.7166766147517074e-01 6.2013354441269009e+00 7.5381754576206008e+00 7.3872159870105145e+00 0 0 0
180 1 3 -1.5372484662962288e-01 7.3040218842236140e+00 4.2432259170832021e+00 3.6544678053732014e+00 0 0 0
181 1 3 -1.7486338499017290e-01 2.5730882392611235e+01 9.3193027951974425e+00 2.9840031717281157e+00 0 0 0
182 1 3 -1.6536503985830223e-01 2.5175651378136243e-01 1.7826291260663938e+00 7.6490672573600200e+00 0 0 0
183 1 3 -1.7510871419875501e-01 7.5245892704103143e+00 1.7342055744097178e+00 9.4461814170823111e+00 0 0 0
184 1 3 -1.8132607352846966e-01 5.9749507939161459e+00 9.7812255733349183e+00 2.5721367378371132e+00 0 0 0
185 1 3 -1.4075890350050199e-01 1.4162773427514459e+01 4.1563829966765322e+00 2.6501527801232094e+00 0 0 0
186 1 3 -2.2712705877842254e-01 1.2264554138754406e+01 7.1996173454858816e+00 9.5530627356340112e+00 0 0 0
187 1 3 -1.4733963340631342e-01 1.9466893266394873e+01 7.4299601034032179e+00 7.7041529920421734e+00 0 0 0
188 1 3 -1.8357522373828158e-01 2.1254008986048067e+01 3.7724863522264265e+00 2.8924178377897340e+00 0 0 0
189 1 3 -1.4277163920423441e-01 1.3296712804669689e+01 9.3658080034063538e+00 2.9191653600159642e+00 0 0 0
190 1 3 -1.8044990629576990e-01 1.4232434593191767e+01 1.8855161568541527e+00 7.6409565597120830e+00 0 0 0
191 1 3 -1.3147246460540457e-01 2.0450095620869210e+01 1.9263758706539469e+00 7.8044030062424872e+00 0 0 0
192 1 3 -2.0397834552555111e-01 1.9065987631718290e+01 9.4011570183827704e+00 1.5181461355721177e+00 0 0 0
193 1 3 3.5494328757362231e-01 2.8753868533238500e+00 6.5913906997298195e+00 2.9648979373528315e+00 0 0 0
194 1 3 3.7373943125840386e-01 2.3539750400541195e+01 4.6984188170605039e+00 7.1995243726820028e+00 0 0 0
195 1 3 3.2738105222256075e-01 3.9138628601522676e+00 5.0625536525057280e+00 8.9701696024135451e+00 0 0 0
196 1 3 3.5102756972335902e-01 9.3771284646353976e+00 6.8598499751993867e+00 2.9752218647553614e+00 0 0 0
197 1 3 3.2881125450014559e-01 2.3721016286661008e+01 1.0857927301761945e+00 1.4283891876356867e+00 0 0 0
198 1 3 3.5163791765810143e-01 2.4999740392301235e+00 9.9928324723460182e+00 7.3379162131165936e+00 0 0 0
199 1 3 3.5194566342201056e-01 9.8602359796869301e+00 1.0098553361090854e+01 7.4143921301321969e+00 0 0 0
200 1 3 3.4009085391012805e-01 3.7412826051972385e+00 1.5799544543790061e+00 3.3148318910608752e+00 0 0 0
201 1 3 3.5958431915956890e-01 1.6514687135674123e+01 6.6017857394716932e+00 3.3038588667084201e+00 0 0 0
202 1 3 3.4780105922015131e-01 1.0831587236185717e+01 4.5681781094803462e+00 7.5628837728740965e+00 0 0 0
203 1 3 3.7183980548478895e-01 1.7403080078742715e+01 4.5149725882135128e+00 7.8901520423717075e+00 0 0 0
204 1 3 3.4888399242950985e-01 2.2552939202663726e+01 6.5475530521625620e+00 1.1426837600959132e+00 0 0 0
205 1 3 3.4998510231150237e-01 1.0939730520393036e+01 1.1836869407754373e+00 3.5961301331790092e+00 0 0 0
206 1 3 3.3219038844272064e-01 1.6513539154000263e+01 1.0271478710584249e+01 8.8306361126846689e+00 0 0 0
207 1 3 3.5770373950957851e-01 2.2780907473876852e+01 1.0206652745302742e+01 7.3708284265910562e+00 0 0 0
208 1 3 3.7935473658352731e-01 1.7185879403809906e+01 1.0064881019512635e+00 3.5733856869583307e+00 0 0 0
209 1 3 3.3819592011034177e-01 2.6145246907357134e+01 3.5242226735819551e+00 4.8974789147021180e+00 -1 0 0
210 1 3 3.4050024052915284e-01 2.5444817024945593e+01 6.8891457950957404e+00 4.5466199266684102e+00 0 0 0
211 1 3 3.6054487679438396e-01 6.9767550742688620e+00 8.1159618441507266e+00 9.5454352432662162e-02 0 0 0
212 1 3 3.4215756522436797e-01 7.8680601825256886e+00 4.8265824681916474e+00 2.3895244925771761e-01 0 0 1
213 1 3 3.5354247287163981e-01 2.6641828451062111e+01 8.6856950082562516e+00 1.0410256043816787e+01 0 0 0
214 1 3 3.5938728613245940e-01 1.3483197548374819e+00 8.7408321974171477e-01 1.6268670676346533e-01 0 0 0
215 1 3 3.4576798867662784e-01 6.4460236964084494e+00 2.3768360894376306e+00 6.0618672376920451e+00 0 0 0
216 1 3 3.3106737354133808e-01 5.8039439999214864e+00 1.0157961564673794e+01 6.1272821455183211e+00 0 0 0
217 1 3 3.2437860241241639e-01 1.4467162050010302e+01 4.4492130633201779e+00 6.1291031579132067e+00 0 0 0
218 1 3 3.3262219164438817e-01 1.3905931857657160e+01 7.4378426986725312e+00 6.1448756640853599e+00 0 0 0
219 1 3 3.3857909110858592e-01 1.8700114162591934e+01 6.6510558522134007e+00 2.6088845308046238e-01 0 0 0
220 1 3 3.4850334007474093e-01 1.9842118150642726e+01 3.4648636504348369e+00 1.0284814203882608e+01 0 0 0
221 1 3 3.6283383628015287e-01 1.2175613496360370e+01 1.0490496714472686e+01 1.0643821200343130e+01 0 0 0
222 1 3 3.3783798691913314e-01 1.3241289396529693e+01 2.2359782555920438e+00 6.3118052621761278e-01 0 0 0
223 1 3 3.3867924191819521e-01 2.1051742075230678e+01 1.0231201689558276e+00 4.4250647460085553e+00 0 0 0
224 1 3 3.4677926451821744e-01 2.0477219162646243e+01 8.9094022802050130e+00 4.8894084290834767e+00 0 0 0
225 1 3 3.2067636427336033e-01 2.5964299717605691e+01 4.4962317601422077e+00 7.6153422786829017e-01 0 0 0
226 1 3 3.8352298846849359e-01 4.5705077820678486e-01 6.3318946837846743e+00 7.8700522478157806e+00 0 0 0
227 1 3 3.5912102314062333e-01 7.4297603089086399e+00 6.6206582410731869e+00 7.2001770553387532e+00 0 0 0
228 1 3 3.5159854709493737e-01 6.1719953675520056e+00 5.2715938717690083e+00 3.6367471156666737e+00 0 0 0
229 1 3 3.5473275790919973e-01 6.3831915387805593e-01 9.9457385078648812e+00 3.0250766347624731e+00 0 0 0
230 1 3 3.4528829079639239e-01 2.5692953959828319e+01 6.9741078351930497e-01 7.5559977169092365e+00 0 0 0
231 1 3 3.4002799361725439e-01 6.1466112747327779e+00 1.2268204218515590e+00 9.8360965840091268e+00 0 0 0
232 1 3 3.4825130925527242e-01 7.2128827513583325e+00 1.0759706950505191e+01 2.5723201988097935e+00 0 0 0
233 1 3 3.7582173114278367e-01 1.3196902700077905e+01 5.3519514330713536e+00 2.7483949817913000e+00 0 0 0
234 1 3 3.5243122433307922e-01 1.3258807878767657e+01 6.1331961905383281e+00 1.0020120396794614e+01 0 0 0
235 1 3 3.4280005789419793e-01 2.0712366166530671e+01 6.5443620883312175e+00 7.7355427392115628e+00 0 0 0
236 1 3 3.5679082929824718e-01 2.0163028663850305e+01 4.6735115260634581e+00 3.5113587634126331e+00 0 0 0
237 1 3 3.7966335075124441e-01 1.4422315640218832e+01 1.0374882917000496e+01 2.6803089852327147e+00 0 0 0
238 1 3 3.4878912088118208e-01 1.3281202917924990e+01 7.0548263949123224e-01 7.3662793878238428e+00 0 0 0
239 1 3 3.7235418773766132e-01 1.9371685594414039e+01 8.0934093900556869e-01 7.8525569234630304e+00 0 0 0
240 1 3 3.6095596416887948e-01 2.0138217268950164e+01 1.0416816114189293e+01 1.1389807121970830e+00 0 0 0
241 1 4 -3.7845759306808174e-01 3.3029524727866031e+00 7.1832609397716585e+00 1.9145491720856873e+00 0 0 0
242 1 4 -4.1911456674450820e-01 2.3665905231670198e+01 3.8722755411059722e+00 8.1737043986571187e+00 0 0 0
243 1 4 -3.1144035556563021e-01 3.3708201825671513e+00 4.4064576991416358e+00 8.0166438704940113e+00 0 0 0
244 1 4 -3.6460272767603474e-01 9.0627538238686842e+00 7.6337297402769293e+00 3.9396456094691366e+00 0 0 0
245 1 4 -3.9421681768336464e-01 2.3900117632907378e+01 1.8970842145867719e+00 2.4429679278934420e+00 0 0 0
246 1 4 -3.9607330664280582e-01 1.8178440197981565e+00 9.5404906303075450e+00 6.3357734096163938e+00 0 0 0
247 1 4 -3.6000242160177254e-01 1.0314331409184730e+01 9.3599788181210641e+00 8.3918154562852436e+00 0 0 0
248 1 4 -3.2487213536016990e-01 3.9563365147432346e+00 2.2624451922750688e+00 2.2699480499732316e+00 0 0 0
249 1 4 -3.2415243102212610e-01 1.6145760030045267e+01 7.3851864379998036e+00 2.3317365930527028e+00 0 0 0
250 1 4 -3.3545322916747194e-01 1.1054642234989958e+01 3.8024999959248098e+00 8.5886480016154145e+00 0 0 0
251 1 4 -4.0106248369741065e-01 1.8068279345834295e+01 3.9890436434299432e+00 6.9108692764095787e+00 0 0 0
252 1 4 -3.6292620630601863e-01 2.2613160071588663e+01 7.1901187380103817e+00 2.2594601382592363e+00 0 0 0
253 1 4 -3.3150143439960206e-01 1.1456532968258532e+01 1.6952638260811075e+00 4.6628518689870351e+00 0 0 0
254 1 4 -3.5832495485232840e-01 1.6819750373700334e+01 9.6804081484457072e+00 7.7286774054217409e+00 0 0 0
255 1 4 -3.6250202983963636e-01 2.2547855481698061e+01 9.5659384306008857e+00 8.4996972914022955e+00 0 0 0
256 1 4 -3.8574449209776668e-01 1.7074776910177267e+01 1.8065258119705703e+00 2.5458301830997119e+00 0 0 0
257 1 4 -3.3045453174684153e-01 3.4380910823050468e+00 6.7937654911201211e+00 4.0967753953703161e+00 0 0 0
258 1 4 -3.6563964398006876e-01 2.3195744519279309e+01 4.2288855289710821e+00 6.0416807779465849e+00 0 0 0
259 1 4 -3.4435214613427101e-01 4.0991570182205850e+00 4.5548263111430867e+00 1.0133489670479317e+01 0 0 0
260 1 4 -3.8605630037793770e-01 9.9329659591792350e+00 7.3789962293026949e+00 1.9253608896796548e+00 0 0 0
261 1 4 -3.6036388892814697e-01 2.3428546799760518e+01 1.4912307581808946e+00 2.3743662569160726e-01 0 0 0
262 1 4 -3.1825395504098408e-01 2.9481636153877409e+00 9.2127370361766303e+00 8.2394029084542524e+00 0 0 0
263 1 4 -3.3099357617949621e-01 1.0415504349362051e+01 1.0069954373094665e+01 6.2644538439094370e+00 0 0 0
264 1 4 -3.4217253843421069e-01 3.5385921370068338e+00 2.1041857037646556e+00 4.4636629591834147e+00 0 0 0
265 1 4 -3.9246729932525382e-01 1.6824920618300407e+01 7.1281053116993149e+00 4.4139086012521771e+00 0 0 0
266 1 4 -3.4331850685503140e-01 1.0471963693136836e+01 4.0344503430630763e+00 6.4623817978067306e+00 0 0 0
267 1 4 -3.3489158323464113e-01 1.6911768081137769e+01 3.8453689214277569e+00 8.8508777094774906e+00 0 0 0
268 1 4 -3.6536081801510967e-01 2.2769099347854986e+01 7.1191644833007279e+00 3.3026654429192538e-02 0 0 0
269 1 4 -3.7919592253479012e-01 1.0235263362203426e+01 1.9075999365078495e+00 2.8142815580006730e+00 0 0 0
270 1 4 -4.0212649770351055e-01 1.6486879670302073e+01 9.6209605893260068e+00 9.9606053206363860e+00 0 0 0
271 1 4 -3.5588037149846757e-01 2.3013693731650754e+01 9.6029081858734919e+00 6.2817522994955981e+00 0 0 0
272 1 4 -3.7871394868498731e-01 1.6953557332837601e+01 1.4274205804622295e+00 4.7553636905654759e+00 0 0 0
273 1 4 -3.6921622486031974e-01 2.5173776088252549e+01 2.7140953385459796e+00 4.6418368944968540e+00 0 0 0
274 1 4 -3.5916634951500231e-01 1.3005858666968242e-01 7.2249773928555445e+00 4.2633748322455274e+00 0 0 0
275 1 4 -3.6021822457369779e-01 8.3059440610534736e+00 8.1857019625979142e+00 1.0224390632970223e+01 0 0 -1
276 1 4 -3.2421605352872507e-01 6.8350750935205191e+00 4.5084170761667375e+00 1.0668732505408165e+01 0 0 0
277 1 4 -2.8736838210280002e-01 1.1976534066196600e+00 8.0661995233123065e+00 1.0647368940682494e+01 0 0 0
278 1 4 -3.5910973507906052e-01 1.7918726338986191e-01 8.6088315571329610e-01 7.1047202685547362e-01 1 0 0
279 1 4 -2.8979567655514871e-01 5.3348733849312007e+00 2.9061752407571833e+00 6.4517197110445395e+00 0 0 0