ITEM: TIMESTEP
0
ITEM: NUMBER OF ATOMS
448
ITEM: BOX BOUNDS xy xz yz pp pp pp
-2.4186686450000000e-01 1.3879200000000001e+01 8.1284706647000001e-16
0.0000000000000000e+00 1.3274800000000003e+01 -2.4186686450000000e-01
0.0000000000000000e+00 2.2679910358299999e+01 1.4036330231000001e-15
ITEM: ATOMS id type xs ys zs
1 1 0.342722 0.121156 0.262985
2 2 0.244528 0.125747 0.255815
3 3 0.220503 0.153491 0.214384
4 3 0.201499 0.0965939 0.289865
5 2 0.401886 0.150642 0.218904
6 3 0.482209 0.145503 0.229915
7 3 0.367799 0.174846 0.179614
8 1 0.382846 0.0859264 0.318634
9 2 0.318705 0.064417 0.369432
10 4 0.351863 0.0808931 0.422242
11 4 0.232351 0.0304784 0.357076
12 2 0.487513 0.0733506 0.32763
13 4 0.515303 0.0316312 0.377279
14 4 0.544813 0.104862 0.285978
15 1 0.407278 0.371156 0.487015
16 2 0.505471 0.375747 0.494184
17 3 0.529497 0.403491 0.535616
18 3 0.548501 0.346594 0.460135
19 2 0.348114 0.400642 0.531096
20 3 0.267791 0.395503 0.520085
21 3 0.382201 0.424846 0.570386
22 1 0.367154 0.335927 0.431367
23 2 0.431295 0.314417 0.380568
24 4 0.398137 0.330893 0.327758
25 4 0.517649 0.280478 0.392924
26 2 0.262487 0.323351 0.42237
27 4 0.234697 0.281631 0.372721
28 4 0.205187 0.354862 0.464022
29 1 0.157278 0.378844 0.237015
30 2 0.255477 0.374253 0.244185
31 3 0.279498 0.346509 0.285616
32 3 0.298501 0.403406 0.210135
33 2 0.0981109 0.349357 0.281099
34 3 0.0177912 0.354497 0.270085
35 3 0.132201 0.325154 0.320386
36 1 0.117151 0.414076 0.181363
37 2 0.181295 0.435583 0.130568
38 4 0.148137 0.419107 0.0777586
39 4 0.267649 0.469521 0.142924
40 2 0.0124876 0.426649 0.17237
41 4 0.984697 0.468368 0.122721
42 4 0.955188 0.395139 0.214021
43 1 0.0927221 0.128844 0.0129853
44 2 0.994527 0.124253 0.0058154
45 3 0.970503 0.0965091 0.964384
46 3 0.951499 0.153406 0.0398652
47 2 0.151887 0.0993578 0.968903
48 3 0.232209 0.104497 0.979915
49 3 0.117799 0.0751542 0.929614
50 1 0.132847 0.164074 0.0686342
51 2 0.068705 0.185583 0.119432
52 4 0.101863 0.169107 0.172242
53 4 0.982351 0.219522 0.107076
54 2 0.237513 0.176649 0.0776296
55 4 0.265303 0.218369 0.127279
56 4 0.294813 0.145138 0.0359785
57 1 0.842722 0.121156 0.262985
58 2 0.744524 0.125747 0.255815
59 3 0.720502 0.153491 0.214384
60 3 0.701499 0.0965939 0.289865
61 2 0.901888 0.150643 0.218902
62 3 0.982209 0.145503 0.229915
63 3 0.867799 0.174846 0.179614
64 1 0.882848 0.0859249 0.318636
65 2 0.818705 0.064417 0.369432
66 4 0.851863 0.080893 0.422242
67 4 0.732351 0.0304785 0.357076
68 2 0.987513 0.0733505 0.32763
69 4 0.0153032 0.0316315 0.377279
70 4 0.0448124 0.104861 0.285979
71 1 0.907278 0.371156 0.487015
72 2 0.0054742 0.375747 0.494185
73 3 0.0294975 0.403491 0.535616
74 3 0.0485011 0.346594 0.460135
75 2 0.848113 0.400643 0.531097
76 3 0.767791 0.395503 0.520085
77 3 0.882201 0.424846 0.570386
78 1 0.867153 0.335926 0.431365
79 2 0.931295 0.314417 0.380568
80 4 0.898137 0.330893 0.327758
81 4 0.017649 0.280478 0.392924
82 2 0.762487 0.323351 0.42237
83 4 0.734697 0.281631 0.372721
84 4 0.705187 0.354861 0.464021
85 1 0.657277 0.378845 0.237013
86 2 0.755457 0.374254 0.244183
87 3 0.779497 0.346509 0.285616
88 3 0.7985 0.403406 0.210135
89 2 0.598123 0.349363 0.281089
90 3 0.517792 0.354497 0.270085
91 3 0.632201 0.325155 0.320386
92 1 0.617162 0.414067 0.181377
93 2 0.681295 0.435583 0.130568
94 4 0.648136 0.419107 0.0777569
95 4 0.767651 0.469522 0.142925
96 2 0.512487 0.42665 0.17237
97 4 0.484696 0.46837 0.12272
98 4 0.455186 0.395137 0.214023
99 1 0.592722 0.128844 0.0129853
100 2 0.494526 0.124253 0.00581535
101 3 0.470502 0.0965091 0.964384
102 3 0.451499 0.153406 0.0398653
103 2 0.651887 0.0993575 0.968903
104 3 0.732209 0.104497 0.979915
105 3 0.617799 0.0751542 0.929614
106 1 0.632847 0.164074 0.0686348
107 2 0.568705 0.185583 0.119432
108 4 0.601863 0.169107 0.172242
109 4 0.482351 0.219521 0.107076
110 2 0.737512 0.176649 0.0776296
111 4 0.765303 0.218369 0.127279
112 4 0.794813 0.145139 0.0359786
113 1 0.342722 0.621156 0.262985
114 2 0.244529 0.625747 0.255816
115 3 0.220503 0.653491 0.214384
116 3 0.201499 0.596594 0.289865
117 2 0.401886 0.650642 0.218904
118 3 0.482209 0.645503 0.229915
119 3 0.367799 0.674846 0.179614
120 1 0.382846 0.585927 0.318633
121 2 0.318705 0.564417 0.369432
122 4 0.351863 0.580893 0.422242
123 4 0.232351 0.530478 0.357076
124 2 0.487513 0.573351 0.32763
125 4 0.515303 0.531631 0.377279
126 4 0.544813 0.604862 0.285978
127 1 0.407278 0.871156 0.487015
128 2 0.50547 0.875747 0.494184
129 3 0.529497 0.903491 0.535616
130 3 0.548501 0.846594 0.460135
131 2 0.348115 0.900641 0.531096
132 3 0.267791 0.895503 0.520085
133 3 0.382201 0.924846 0.570386
134 1 0.367155 0.835927 0.431368
135 2 0.431295 0.814417 0.380568
136 4 0.398137 0.830893 0.327758
137 4 0.51765 0.780478 0.392924
138 2 0.262487 0.823351 0.42237
139 4 0.234697 0.781631 0.372721
140 4 0.205187 0.854862 0.464022
141 1 0.157278 0.878844 0.237015
142 2 0.255478 0.874253 0.244185
143 3 0.279498 0.846509 0.285616
144 3 0.298501 0.903406 0.210135
145 2 0.0981105 0.849356 0.281099
146 3 0.0177911 0.854497 0.270085
147 3 0.132201 0.825154 0.320386
148 1 0.117151 0.914076 0.181363
149 2 0.181295 0.935583 0.130568
150 4 0.148137 0.919107 0.0777587
151 4 0.267649 0.969521 0.142924
152 2 0.0124876 0.926649 0.17237
153 4 0.984697 0.968368 0.122722
154 4 0.955188 0.895139 0.214021
155 1 0.0927221 0.628844 0.0129853
156 2 0.994527 0.624253 0.00581537
157 3 0.970503 0.596509 0.964384
158 3 0.951499 0.653406 0.0398653
159 2 0.151887 0.599358 0.968903
160 3 0.232209 0.604497 0.979915
161 3 0.117799 0.575154 0.929614
162 1 0.132847 0.664074 0.0686344
163 2 0.068705 0.685583 0.119432
164 4 0.101863 0.669107 0.172242
165 4 0.982351 0.719522 0.107076
166 2 0.237513 0.676649 0.0776296
167 4 0.265303 0.718369 0.127279
168 4 0.294813 0.645138 0.0359786
169 1 0.842722 0.621156 0.262985
170 2 0.744524 0.625747 0.255815
171 3 0.720502 0.653491 0.214384
172 3 0.701499 0.596594 0.289865
173 2 0.901889 0.650643 0.218902
174 3 0.982209 0.645503 0.229915
175 3 0.867799 0.674846 0.179614
176 1 0.882848 0.585925 0.318636
177 2 0.818705 0.564417 0.369432
178 4 0.851863 0.580893 0.422242
179 4 0.732351 0.530479 0.357076
180 2 0.987513 0.573351 0.32763
181 4 0.0153031 0.531632 0.377279
182 4 0.0448124 0.604861 0.285979
183 1 0.907278 0.871156 0.487015
184 2 0.00547468 0.875747 0.494185
185 3 0.0294975 0.903491 0.535616
186 3 0.0485011 0.846594 0.460135
187 2 0.848112 0.900643 0.531098
188 3 0.767791 0.895503 0.520085
189 3 0.882201 0.924846 0.570386
190 1 0.867153 0.835925 0.431365
191 2 0.931295 0.814417 0.380568
192 4 0.898137 0.830893 0.327758
193 4 0.017649 0.780478 0.392924
194 2 0.762487 0.823351 0.42237
195 4 0.734697 0.781631 0.372721
196 4 0.705188 0.854861 0.464021
197 1 0.657277 0.878845 0.237013
198 2 0.755456 0.874254 0.244183
199 3 0.779497 0.846509 0.285616
200 3 0.7985 0.903406 0.210135
201 2 0.598123 0.849363 0.281089
202 3 0.517792 0.854497 0.270085
203 3 0.632201 0.825155 0.320386
204 1 0.617162 0.914067 0.181377
205 2 0.681295 0.935583 0.130568
206 4 0.648136 0.919107 0.0777568
207 4 0.767651 0.969522 0.142925
208 2 0.512487 0.92665 0.17237
209 4 0.484696 0.96837 0.12272
210 4 0.455186 0.895137 0.214023
211 1 0.592722 0.628844 0.0129853
212 2 0.494526 0.624253 0.00581535
213 3 0.470502 0.596509 0.964384
214 3 0.451499 0.653406 0.0398653
215 2 0.651887 0.599357 0.968903
216 3 0.732209 0.604497 0.979915
217 3 0.617799 0.575154 0.929614
218 1 0.632847 0.664074 0.0686348
219 2 0.568705 0.685583 0.119432
220 4 0.601863 0.669107 0.172242
221 4 0.482351 0.719521 0.107076
222 2 0.737513 0.676649 0.0776296
223 4 0.765303 0.718369 0.127279
224 4 0.794813 0.645139 0.0359786
225 1 0.342722 0.121156 0.762985
226 2 0.244524 0.125747 0.755815
227 3 0.220502 0.153491 0.714384
228 3 0.201499 0.0965939 0.789865
229 2 0.401889 0.150643 0.718902
230 3 0.482209 0.145503 0.729915
231 3 0.367799 0.174846 0.679614
232 1 0.382848 0.0859246 0.818636
233 2 0.318705 0.064417 0.869432
234 4 0.351863 0.0808925 0.922242
235 4 0.232351 0.0304786 0.857076
236 2 0.487512 0.0733505 0.82763
237 4 0.515303 0.0316316 0.877279
238 4 0.544812 0.104861 0.785979
239 1 0.407242 0.371119 0.986955
240 2 0.505239 0.375736 0.99417
241 3 0.529492 0.403488 0.0356133
242 3 0.548495 0.346593 0.960134
243 2 0.348255 0.400573 0.0309939
244 3 0.26779 0.395502 0.020084
245 3 0.382203 0.424844 0.0703827
246 1 0.367301 0.336066 0.931598
247 2 0.431283 0.314421 0.880571
248 4 0.398102 0.33091 0.827704
249 4 0.517737 0.280448 0.892943
250 2 0.2625 0.323355 0.922374
251 4 0.234669 0.281595 0.872676
252 4 0.205151 0.354888 0.964057
253 1 0.157278 0.378844 0.737015
254 2 0.25548 0.374253 0.744185
255 3 0.279499 0.346509 0.785616
256 3 0.298501 0.403406 0.710135
257 2 0.0981102 0.349356 0.7811
258 3 0.0177915 0.354497 0.770086
259 3 0.132202 0.325154 0.820386
260 1 0.11715 0.414077 0.681362
261 2 0.181295 0.435583 0.630568
262 4 0.148137 0.419107 0.577759
263 4 0.267648 0.469521 0.642924
264 2 0.0124879 0.426649 0.67237
265 4 0.984697 0.468368 0.622722
266 4 0.955188 0.395139 0.714021
267 1 0.0927221 0.128844 0.512985
268 2 0.994528 0.124253 0.505815
269 3 0.970503 0.0965091 0.464384
270 3 0.951499 0.153406 0.539865
271 2 0.151886 0.0993581 0.468904
272 3 0.232209 0.104497 0.479915
273 3 0.117799 0.0751543 0.429614
274 1 0.132846 0.164073 0.568633
275 2 0.068705 0.185583 0.619432
276 4 0.101863 0.169107 0.672242
277 4 0.982351 0.219522 0.607076
278 2 0.237513 0.176649 0.57763
279 4 0.265303 0.218369 0.627279
280 4 0.294813 0.145138 0.535978
281 1 0.842722 0.121156 0.762985
282 2 0.744529 0.125747 0.755816
283 3 0.720503 0.153491 0.714384
284 3 0.701499 0.0965939 0.789865
285 2 0.901886 0.150642 0.718904
286 3 0.982209 0.145503 0.729915
287 3 0.867799 0.174846 0.679614
288 1 0.882846 0.0859268 0.818633
289 2 0.818705 0.064417 0.869432
290 4 0.851863 0.0808931 0.922242
291 4 0.732351 0.0304784 0.857076
292 2 0.987513 0.0733505 0.82763
293 4 0.0153034 0.0316312 0.877279
294 4 0.0448127 0.104862 0.785978
295 1 0.907278 0.371156 0.987014
296 2 0.00546534 0.375747 0.994184
297 3 0.0294971 0.403491 0.0356159
298 3 0.0485009 0.346594 0.960135
299 2 0.848118 0.40064 0.0310933
300 3 0.767791 0.395503 0.0200854
301 3 0.882201 0.424846 0.070386
302 1 0.867158 0.335929 0.931371
303 2 0.931295 0.314417 0.880568
304 4 0.898137 0.330893 0.827757
305 4 0.0176502 0.280478 0.892924
306 2 0.762487 0.323351 0.922371
307 4 0.734696 0.281631 0.87272
308 4 0.705187 0.354862 0.964022
309 1 0.657278 0.378844 0.737015
310 2 0.755471 0.374253 0.744184
311 3 0.779497 0.346509 0.785616
312 3 0.798501 0.403406 0.710135
313 2 0.598114 0.349358 0.781096
314 3 0.517791 0.354497 0.770086
315 3 0.632201 0.325154 0.820386
316 1 0.617154 0.414073 0.681367
317 2 0.681295 0.435583 0.630568
318 4 0.648137 0.419107 0.577758
319 4 0.767649 0.469522 0.642924
320 2 0.512487 0.426649 0.67237
321 4 0.484697 0.468369 0.622721
322 4 0.455187 0.395138 0.714022
323 1 0.592722 0.128844 0.512985
324 2 0.494525 0.124253 0.505815
325 3 0.470502 0.0965091 0.464384
326 3 0.451499 0.153406 0.539865
327 2 0.651888 0.0993574 0.468903
328 3 0.732209 0.104497 0.479915
329 3 0.617799 0.0751542 0.429614
330 1 0.632847 0.164075 0.568635
331 2 0.568705 0.185583 0.619432
332 4 0.601863 0.169107 0.672242
333 4 0.482351 0.219522 0.607076
334 2 0.737513 0.176649 0.57763
335 4 0.765303 0.218369 0.627279
336 4 0.794813 0.145139 0.535979
337 1 0.342722 0.621156 0.762985
338 2 0.244523 0.625747 0.755815
339 3 0.220502 0.653491 0.714384
340 3 0.201499 0.596594 0.789865
341 2 0.401889 0.650643 0.718901
342 3 0.482209 0.645503 0.729915
343 3 0.367799 0.674846 0.679614
344 1 0.382849 0.585924 0.818637
345 2 0.318705 0.564417 0.869432
346 4 0.351863 0.580893 0.922242
347 4 0.232351 0.530479 0.857076
348 2 0.487512 0.573351 0.82763
349 4 0.515303 0.531632 0.877279
350 4 0.544812 0.604861 0.785979
351 1 0.407242 0.871119 0.986956
352 2 0.505239 0.875736 0.99417
353 3 0.529492 0.903488 0.0356133
354 3 0.548495 0.846593 0.960134
355 2 0.348255 0.900573 0.0309938
356 3 0.26779 0.895502 0.020084
357 3 0.382203 0.924844 0.0703827
358 1 0.367301 0.836066 0.931598
359 2 0.431283 0.814421 0.880571
360 4 0.398102 0.83091 0.827704
361 4 0.517737 0.780448 0.892943
362 2 0.2625 0.823355 0.922374
363 4 0.234669 0.781595 0.872676
364 4 0.205151 0.854888 0.964057
365 1 0.157278 0.878844 0.737015
366 2 0.255481 0.874252 0.744185
367 3 0.279499 0.846509 0.785616
368 3 0.298501 0.903406 0.710135
369 2 0.0981096 0.849355 0.7811
370 3 0.0177914 0.854497 0.770086
371 3 0.132202 0.825154 0.820386
372 1 0.11715 0.914077 0.681361
373 2 0.181295 0.935583 0.630568
374 4 0.148137 0.919107 0.577759
375 4 0.267648 0.969521 0.642924
376 2 0.0124879 0.926649 0.67237
377 4 0.984697 0.968368 0.622722
378 4 0.955188 0.895139 0.714021
379 1 0.0927221 0.628844 0.512985
380 2 0.994527 0.624253 0.505815
381 3 0.970503 0.596509 0.464384
382 3 0.951499 0.653406 0.539865
383 2 0.151887 0.599358 0.468903
384 3 0.232209 0.604497 0.479915
385 3 0.117799 0.575154 0.429614
386 1 0.132847 0.664074 0.568634
387 2 0.068705 0.685583 0.619432
388 4 0.101863 0.669107 0.672242
389 4 0.982351 0.719522 0.607076
390 2 0.237513 0.676649 0.57763
391 4 0.265303 0.718369 0.627279
392 4 0.294813 0.645138 0.535979
393 1 0.842722 0.621156 0.762986
394 2 0.74453 0.625747 0.755816
395 3 0.720503 0.653491 0.714384
396 3 0.701499 0.596594 0.789865
397 2 0.901885 0.650641 0.718905
398 3 0.982209 0.645503 0.729915
399 3 0.867799 0.674846 0.679614
400 1 0.882845 0.585927 0.818632
401 2 0.818705 0.564417 0.869432
402 4 0.851863 0.580893 0.922242
403 4 0.73235 0.530478 0.857076
404 2 0.987513 0.573351 0.82763
405 4 0.0153035 0.531631 0.877279
406 4 0.0448128 0.604862 0.785978
407 1 0.907278 0.871156 0.987014
408 2 0.0054639 0.875747 0.994184
409 3 0.029497 0.903491 0.0356158
410 3 0.0485009 0.846594 0.960135
411 2 0.848119 0.900639 0.0310926
412 3 0.767791 0.895503 0.0200854
413 3 0.882201 0.924846 0.070386
414 1 0.867158 0.83593 0.931372
415 2 0.931295 0.814417 0.880568
416 4 0.898137 0.830893 0.827757
417 4 0.0176504 0.780478 0.892924
418 2 0.762487 0.823351 0.922371
419 4 0.734696 0.781631 0.87272
420 4 0.705187 0.854862 0.964022
421 1 0.657278 0.878844 0.737015
422 2 0.755471 0.874253 0.744184
423 3 0.779497 0.846509 0.785616
424 3 0.798501 0.903406 0.710135
425 2 0.598114 0.849358 0.781096
426 3 0.517791 0.854497 0.770086
427 3 0.632201 0.825154 0.820386
428 1 0.617154 0.914073 0.681367
429 2 0.681295 0.935583 0.630568
430 4 0.648137 0.919107 0.577758
431 4 0.767649 0.969522 0.642924
432 2 0.512487 0.926649 0.67237
433 4 0.484697 0.968369 0.622721
434 4 0.455187 0.895138 0.714022
435 1 0.592722 0.628844 0.512985
436 2 0.494526 0.624253 0.505815
437 3 0.470503 0.596509 0.464384
438 3 0.451499 0.653406 0.539865
439 2 0.651887 0.599357 0.468903
440 3 0.732209 0.604497 0.479915
441 3 0.617799 0.575154 0.429614
442 1 0.632847 0.664074 0.568635
443 2 0.568705 0.685583 0.619432
444 4 0.601863 0.669107 0.672242
445 4 0.482351 0.719522 0.607076
446 2 0.737513 0.676649 0.57763
447 4 0.765303 0.718369 0.627279
448 4 0.794813 0.645139 0.535979
ITEM: TIMESTEP
1000
ITEM: NUMBER OF ATOMS
448
ITEM: BOX BOUNDS xy xz yz pp pp pp
-1.8864962508827987e+00 1.3943906687798856e+01 2.2996408375034711e-02
4.7901545781745725e-01 1.2888752550258392e+01 -1.8447859714589581e+00
4.7614889744216526e-01 2.2203761460857887e+01 9.2968008075809197e-02
ITEM: ATOMS id type xs ys zs
1 1 0.346751 0.11804 0.246865
2 2 0.248898 0.118318 0.233935
3 3 0.212869 0.160527 0.182457
4 3 0.208902 0.0873097 0.274392
5 2 0.404828 0.15107 0.206731
6 3 0.487602 0.137587 0.233279
7 3 0.364341 0.178767 0.153314
8 1 0.385881 0.0792969 0.309541
9 2 0.321077 0.0710797 0.360703
10 4 0.360214 0.0678927 0.416729
11 4 0.228522 0.0577617 0.346169
12 2 0.484771 0.067136 0.328114
13 4 0.510989 0.0142348 0.381554
14 4 0.547572 0.0888565 0.287682
15 1 0.389242 0.390428 0.51198
16 2 0.483624 0.378018 0.522953
17 3 0.52012 0.404029 0.573094
18 3 0.526501 0.329688 0.48452
19 2 0.332492 0.438672 0.550455
20 3 0.241799 0.438631 0.52569
21 3 0.364826 0.458994 0.590729
22 1 0.343346 0.350557 0.450738
23 2 0.406152 0.318202 0.400115
24 4 0.376515 0.315715 0.342778
25 4 0.497154 0.296292 0.416193
26 2 0.245618 0.344334 0.435657
27 4 0.216401 0.292815 0.382821
28 4 0.185194 0.392851 0.471955
29 1 0.146439 0.37705 0.256221
30 2 0.243373 0.385877 0.268445
31 3 0.271356 0.361438 0.315635
32 3 0.283722 0.429065 0.231544
33 2 0.0881805 0.339341 0.296357
34 3 0.00193433 0.337764 0.276885
35 3 0.116313 0.321192 0.351077
36 1 0.106071 0.414189 0.193932
37 2 0.169788 0.434913 0.143184
38 4 0.144465 0.427712 0.0851216
39 4 0.259545 0.460349 0.160401
40 2 0.00625118 0.42492 0.180681
41 4 0.969167 0.470284 0.126493
42 4 0.946927 0.37768 0.216401
43 1 0.0920255 0.125927 0.991831
44 2 0.996576 0.123221 0.983902
45 3 0.980413 0.09271 0.928538
46 3 0.946232 0.151741 0.0222195
47 2 0.148596 0.0943142 0.949339
48 3 0.23458 0.0894888 0.972529
49 3 0.118964 0.0685981 0.892843
50 1 0.137728 0.156858 0.0558699
51 2 0.0766411 0.188433 0.10387
52 4 0.109938 0.191915 0.162462
53 4 0.983125 0.199072 0.0871651
54 2 0.238247 0.162865 0.0687867
55 4 0.273869 0.21855 0.120314
56 4 0.296368 0.114792 0.0312797
57 1 0.848892 0.127677 0.24264
58 2 0.754997 0.108376 0.230174
59 3 0.716361 0.144528 0.180483
60 3 0.708368 0.0751669 0.274546
61 2 0.906359 0.163974 0.201739
62 3 0.991549 0.156032 0.226162
63 3 0.876171 0.184731 0.144729
64 1 0.890091 0.0969132 0.306519
65 2 0.825322 0.0822928 0.35725
66 4 0.862169 0.0813655 0.413554
67 4 0.730694 0.0750878 0.344276
68 2 0.989151 0.0832028 0.322589
69 4 0.0192812 0.031703 0.375607
70 4 0.050884 0.117359 0.282615
71 1 0.902046 0.390458 0.508341
72 2 0.999316 0.39962 0.515713
73 3 0.0375448 0.422606 0.563619
74 3 0.0409679 0.363112 0.46998
75 2 0.848277 0.416154 0.553854
76 3 0.759391 0.409777 0.545482
77 3 0.888084 0.441377 0.608829
78 1 0.852273 0.349545 0.449766
79 2 0.907559 0.325844 0.398937
80 4 0.872331 0.321988 0.339909
81 4 0.00262501 0.320012 0.407588
82 2 0.746824 0.351247 0.440572
83 4 0.703417 0.321972 0.388571
84 4 0.695661 0.385143 0.48527
85 1 0.635573 0.386923 0.253937
86 2 0.731034 0.383357 0.267455
87 3 0.769827 0.355961 0.322431
88 3 0.782375 0.405812 0.232005
89 2 0.573017 0.361454 0.296988
90 3 0.485258 0.378211 0.281015
91 3 0.600069 0.342379 0.345164
92 1 0.597448 0.416218 0.190476
93 2 0.665731 0.419998 0.141166
94 4 0.637134 0.408549 0.0836903
95 4 0.757528 0.430448 0.159562
96 2 0.498111 0.439219 0.177479
97 4 0.465445 0.481625 0.122586
98 4 0.439026 0.428626 0.222395
99 1 0.585526 0.116248 0.999634
100 2 0.489511 0.126281 0.992252
101 3 0.459202 0.0814019 0.947365
102 3 0.449528 0.171899 0.03441
103 2 0.636375 0.069186 0.959151
104 3 0.725818 0.0726273 0.972875
105 3 0.620087 0.0289661 0.901422
106 1 0.63256 0.159371 0.0605777
107 2 0.571348 0.18376 0.10992
108 4 0.607086 0.173985 0.166475
109 4 0.479481 0.211701 0.0994737
110 2 0.734494 0.161475 0.0683084
111 4 0.775429 0.2158 0.118181
112 4 0.786023 0.105822 0.0307556
113 1 0.343397 0.635341 0.244331
114 2 0.246046 0.628283 0.234705
115 3 0.205769 0.655761 0.186317
116 3 0.192407 0.580316 0.27129
117 2 0.403918 0.66522 0.201616
118 3 0.486257 0.669324 0.229809
119 3 0.377902 0.686295 0.149059
120 1 0.384426 0.595984 0.3046
121 2 0.318354 0.56959 0.351513
122 4 0.356937 0.570217 0.408567
123 4 0.22628 0.554023 0.339465
124 2 0.489222 0.590706 0.321159
125 4 0.517415 0.527453 0.368994
126 4 0.548548 0.648114 0.289851
127 1 0.402355 0.885799 0.503922
128 2 0.500796 0.880078 0.515238
129 3 0.549174 0.913857 0.558377
130 3 0.538429 0.836619 0.477665
131 2 0.350347 0.925848 0.545436
132 3 0.26638 0.911369 0.527449
133 3 0.387599 0.957002 0.599155
134 1 0.362469 0.846516 0.442525
135 2 0.43157 0.825289 0.393227
136 4 0.396257 0.83766 0.336686
137 4 0.522771 0.808182 0.405478
138 2 0.26556 0.826922 0.428045
139 4 0.226561 0.786627 0.371731
140 4 0.208663 0.854715 0.471731
141 1 0.156453 0.89259 0.250165
142 2 0.251972 0.899422 0.262749
143 3 0.284968 0.866387 0.310009
144 3 0.291294 0.945652 0.220601
145 2 0.0987225 0.856856 0.291098
146 3 0.014516 0.85445 0.271453
147 3 0.139501 0.837666 0.347593
148 1 0.113691 0.929396 0.188006
149 2 0.176049 0.937162 0.137563
150 4 0.142404 0.925727 0.079898
151 4 0.269148 0.956336 0.150918
152 2 0.0110538 0.939533 0.17393
153 4 0.975285 0.979888 0.11857
154 4 0.954549 0.898419 0.212813
155 1 0.0933831 0.621645 0.996007
156 2 0.996912 0.628498 0.981772
157 3 0.966445 0.604041 0.931423
158 3 0.952216 0.643228 0.0257518
159 2 0.151725 0.590734 0.954023
160 3 0.242449 0.596282 0.965956
161 3 0.109507 0.566349 0.901256
162 1 0.137367 0.653403 0.0573325
163 2 0.0732623 0.68419 0.106037
164 4 0.0994219 0.699374 0.16344
165 4 0.979634 0.6924 0.0909536
166 2 0.239451 0.663034 0.066808
167 4 0.274198 0.705847 0.120773
168 4 0.298219 0.63698 0.0249921
169 1 0.848125 0.624492 0.243177
170 2 0.753356 0.606823 0.226696
171 3 0.702852 0.65338 0.185762
172 3 0.713143 0.553069 0.265415
173 2 0.903875 0.675213 0.20694
174 3 0.990246 0.682527 0.227979
175 3 0.864664 0.691167 0.151434
176 1 0.884204 0.585829 0.306419
177 2 0.817367 0.570924 0.354021
178 4 0.845216 0.58388 0.412435
179 4 0.725643 0.555068 0.336984
180 2 0.986671 0.577402 0.321809
181 4 0.0195307 0.533669 0.375916
182 4 0.0430475 0.62758 0.285761
183 1 0.911809 0.880097 0.499377
184 2 0.0106892 0.86271 0.510925
185 3 0.0424405 0.89296 0.55647
186 3 0.0514769 0.836756 0.471464
187 2 0.857722 0.921625 0.539145
188 3 0.772952 0.92895 0.516292
189 3 0.875077 0.942079 0.599302
190 1 0.870725 0.847655 0.438217
191 2 0.933486 0.831475 0.389091
192 4 0.895632 0.835978 0.331019
193 4 0.0244524 0.811966 0.399762
194 2 0.765647 0.832917 0.423483
195 4 0.731771 0.776461 0.37429
196 4 0.710348 0.872094 0.463725
197 1 0.650738 0.876543 0.25394
198 2 0.744123 0.890676 0.268135
199 3 0.79123 0.869566 0.319595
200 3 0.783657 0.929847 0.229119
201 2 0.592915 0.83958 0.296671
202 3 0.507085 0.845308 0.273764
203 3 0.629688 0.810564 0.349717
204 1 0.611017 0.910979 0.191188
205 2 0.679968 0.924743 0.141666
206 4 0.647821 0.922144 0.0838792
207 4 0.770361 0.938742 0.157421
208 2 0.51227 0.925652 0.176785
209 4 0.479835 0.97728 0.122426
210 4 0.450634 0.887203 0.214213
211 1 0.605226 0.608563 0.997034
212 2 0.515237 0.633889 0.97602
213 3 0.468919 0.592076 0.931534
214 3 0.468381 0.679162 0.00815276
215 2 0.66525 0.551234 0.962456
216 3 0.75075 0.549333 0.989864
217 3 0.634644 0.518655 0.92008
218 1 0.642527 0.643513 0.0586953
219 2 0.572367 0.677642 0.103898
220 4 0.599321 0.691731 0.162449
221 4 0.483173 0.687339 0.0820781
222 2 0.742776 0.655816 0.0756769
223 4 0.773129 0.728081 0.119457
224 4 0.803499 0.595867 0.0477968
225 1 0.366193 0.126963 0.746035
226 2 0.273058 0.130494 0.730134
227 3 0.239111 0.164283 0.678996
228 3 0.22203 0.085722 0.765519
229 2 0.428973 0.168914 0.708661
230 3 0.516285 0.143131 0.731766
231 3 0.395864 0.195203 0.666958
232 1 0.400122 0.078984 0.808158
233 2 0.329284 0.0645009 0.857431
234 4 0.352946 0.0686809 0.915086
235 4 0.238295 0.0569962 0.836611
236 2 0.494146 0.0575781 0.823309
237 4 0.522014 0.006735 0.879045
238 4 0.563225 0.0818384 0.786269
239 1 0.39892 0.364101 0.00851475
240 2 0.496308 0.357899 0.021102
241 3 0.521412 0.383821 0.066603
242 3 0.55198 0.314593 0.983807
243 2 0.339211 0.415004 0.0436742
244 3 0.253087 0.416646 0.0199604
245 3 0.362848 0.458356 0.097293
246 1 0.368231 0.319845 0.946434
247 2 0.439001 0.309094 0.902319
248 4 0.409545 0.316004 0.842595
249 4 0.533363 0.296805 0.915463
250 2 0.265074 0.311863 0.929491
251 4 0.234091 0.258482 0.878132
252 4 0.204093 0.362853 0.961938
253 1 0.160839 0.375108 0.76216
254 2 0.256394 0.379336 0.775341
255 3 0.305096 0.342304 0.822743
256 3 0.288269 0.404246 0.731885
257 2 0.102382 0.34446 0.803486
258 3 0.0126151 0.34886 0.784013
259 3 0.135698 0.302861 0.85628
260 1 0.11795 0.416903 0.700079
261 2 0.182308 0.438121 0.64972
262 4 0.144917 0.446287 0.59392
263 4 0.276199 0.436151 0.661686
264 2 0.0191015 0.433662 0.685299
265 4 0.987663 0.480799 0.63076
266 4 0.961155 0.388677 0.724394
267 1 0.101573 0.145022 0.491265
268 2 0.00573504 0.152101 0.483367
269 3 0.97051 0.124897 0.439461
270 3 0.963213 0.18703 0.531054
271 2 0.158885 0.109025 0.447208
272 3 0.230502 0.0962075 0.464333
273 3 0.118563 0.0714003 0.3952
274 1 0.144602 0.181964 0.550972
275 2 0.0931575 0.19585 0.603345
276 4 0.133257 0.200895 0.660143
277 4 0.995954 0.203653 0.596552
278 2 0.254331 0.188856 0.559066
279 4 0.294256 0.238452 0.605458
280 4 0.306146 0.127023 0.527231
281 1 0.854285 0.114735 0.744375
282 2 0.757793 0.109479 0.733273
283 3 0.721839 0.139906 0.682074
284 3 0.723166 0.0561669 0.766329
285 2 0.908407 0.144369 0.701564
286 3 0.994704 0.135499 0.720906
287 3 0.873452 0.180623 0.646546
288 1 0.893218 0.0727078 0.80747
289 2 0.819137 0.0535348 0.856781
290 4 0.848961 0.0598272 0.914449
291 4 0.729004 0.0351957 0.840795
292 2 0.9854 0.0576709 0.821291
293 4 0.0209842 0.0192819 0.883117
294 4 0.0455106 0.0811197 0.779461
295 1 0.906228 0.362857 0.00398763
296 2 0.00316989 0.362578 0.0156178
297 3 0.0399603 0.386147 0.0685829
298 3 0.0527751 0.319089 0.978251
299 2 0.849426 0.391122 0.047181
300 3 0.762347 0.374706 0.0247373
301 3 0.876876 0.423231 0.101802
302 1 0.866928 0.32154 0.941895
303 2 0.933745 0.308269 0.892821
304 4 0.903103 0.300877 0.834813
305 4 0.0273987 0.298509 0.907843
306 2 0.769011 0.298701 0.928878
307 4 0.743904 0.242486 0.877008
308 4 0.706689 0.324566 0.969485
309 1 0.656961 0.349176 0.755322
310 2 0.753985 0.351873 0.763215
311 3 0.793881 0.309358 0.809859
312 3 0.7835 0.412311 0.726773
313 2 0.60522 0.301347 0.798323
314 3 0.531491 0.31916 0.787611
315 3 0.640115 0.256216 0.849016
316 1 0.612361 0.39823 0.698374
317 2 0.666888 0.434363 0.646668
318 4 0.62432 0.450733 0.590566
319 4 0.758562 0.45175 0.656791
320 2 0.510217 0.424847 0.697121
321 4 0.474818 0.486235 0.652452
322 4 0.455524 0.390554 0.739236
323 1 0.599897 0.12977 0.497163
324 2 0.500392 0.138665 0.489368
325 3 0.472461 0.0991136 0.444626
326 3 0.460466 0.200895 0.525556
327 2 0.652277 0.0863082 0.455773
328 3 0.738201 0.0864139 0.479231
329 3 0.614548 0.0438937 0.405658
330 1 0.643579 0.172048 0.556132
331 2 0.580506 0.190051 0.607861
332 4 0.614178 0.17118 0.665462
333 4 0.489661 0.213119 0.594991
334 2 0.744695 0.183087 0.570074
335 4 0.782877 0.231043 0.622892
336 4 0.799336 0.131526 0.535696
337 1 0.343348 0.631925 0.745984
338 2 0.248701 0.626195 0.732517
339 3 0.213348 0.652703 0.68043
340 3 0.207488 0.593547 0.776701
341 2 0.401738 0.674568 0.70438
342 3 0.483325 0.674253 0.721201
343 3 0.361926 0.702923 0.651361
344 1 0.384559 0.594931 0.807788
345 2 0.3252 0.564379 0.855446
346 4 0.365977 0.546935 0.911917
347 4 0.229535 0.56335 0.845518
348 2 0.489156 0.579335 0.816738
349 4 0.525337 0.521841 0.864446
350 4 0.545588 0.617137 0.776916
351 1 0.404789 0.872432 0.00250421
352 2 0.501131 0.869906 0.0118393
353 3 0.539828 0.901142 0.0630091
354 3 0.540877 0.823904 0.973225
355 2 0.346576 0.901771 0.0447234
356 3 0.258738 0.901634 0.0227714
357 3 0.386299 0.923705 0.0986896
358 1 0.363967 0.834034 0.941553
359 2 0.426232 0.808722 0.890487
360 4 0.392698 0.818888 0.833092
361 4 0.518967 0.795596 0.903656
362 2 0.263335 0.818247 0.928076
363 4 0.234266 0.762299 0.875666
364 4 0.201482 0.859151 0.965223
365 1 0.155038 0.876248 0.748299
366 2 0.25181 0.886547 0.763583
367 3 0.285686 0.846323 0.812893
368 3 0.292313 0.935039 0.724275
369 2 0.100691 0.837782 0.791352
370 3 0.0105982 0.8335 0.773205
371 3 0.143005 0.805147 0.844012
372 1 0.110425 0.914186 0.689271
373 2 0.17318 0.948622 0.639735
374 4 0.142588 0.95099 0.582588
375 4 0.264628 0.966524 0.654934
376 2 0.00787237 0.919768 0.676691
377 4 0.9722 0.969985 0.626029
378 4 0.951489 0.882823 0.717086
379 1 0.0955707 0.633226 0.493285
380 2 0.000592247 0.6396 0.478961
381 3 0.951117 0.622742 0.434724
382 3 0.963404 0.676693 0.522615
383 2 0.155328 0.596172 0.45578
384 3 0.243189 0.591172 0.474368
385 3 0.115302 0.575018 0.401633
386 1 0.135173 0.669317 0.557293
387 2 0.0734054 0.682715 0.607462
388 4 0.10427 0.676775 0.665714
389 4 0.981629 0.702725 0.592718
390 2 0.236696 0.683313 0.567884
391 4 0.266229 0.739413 0.620825
392 4 0.296196 0.645546 0.530238
393 1 0.842882 0.615808 0.744117
394 2 0.74746 0.612613 0.73185
395 3 0.699529 0.655748 0.684497
396 3 0.702689 0.568093 0.770554
397 2 0.899603 0.656435 0.704323
398 3 0.981517 0.652157 0.726591
399 3 0.866858 0.696032 0.65121
400 1 0.888027 0.577848 0.805536
401 2 0.822132 0.556965 0.855196
402 4 0.858027 0.558195 0.911836
403 4 0.730225 0.545126 0.841582
404 2 0.986851 0.566882 0.821644
405 4 0.0175474 0.511337 0.875108
406 4 0.0456438 0.609545 0.785098
407 1 0.905801 0.861499 0.999881
408 2 0.00216902 0.856558 0.00976232
409 3 0.0370385 0.898735 0.0584799
410 3 0.0440074 0.817775 0.967705
411 2 0.848249 0.886028 0.0428058
412 3 0.764048 0.877234 0.0279384
413 3 0.886349 0.919339 0.097304
414 1 0.866557 0.8254 0.935896
415 2 0.935437 0.804043 0.885832
416 4 0.896328 0.796912 0.831928
417 4 0.0287419 0.788599 0.896395
418 2 0.771449 0.812921 0.923951
419 4 0.729588 0.763671 0.867447
420 4 0.7133 0.83499 0.966939
421 1 0.653699 0.862523 0.750287
422 2 0.746772 0.868459 0.766079
423 3 0.77179 0.841796 0.822527
424 3 0.797938 0.893652 0.731288
425 2 0.592041 0.822993 0.789065
426 3 0.505037 0.818188 0.767249
427 3 0.628664 0.804701 0.841682
428 1 0.621125 0.899463 0.686159
429 2 0.689333 0.923725 0.640979
430 4 0.656646 0.943664 0.583335
431 4 0.780947 0.927004 0.659435
432 2 0.518805 0.918624 0.674545
433 4 0.487933 0.98 0.625622
434 4 0.456673 0.875642 0.710127
435 1 0.591522 0.631534 0.49689
436 2 0.495301 0.636542 0.484993
437 3 0.467907 0.607427 0.438697
438 3 0.444933 0.67611 0.526405
439 2 0.645746 0.593054 0.454971
440 3 0.73452 0.597656 0.476025
441 3 0.612922 0.560239 0.403182
442 1 0.630994 0.672519 0.559338
443 2 0.567361 0.684907 0.606761
444 4 0.597861 0.680065 0.66704
445 4 0.472962 0.697249 0.593274
446 2 0.732929 0.691196 0.573027