LAMMPS data file via write_data, version 15 Apr 2020, timestep = 80000

448 atoms
4 atom types

6.3927314387597356e-02 1.3815272685612204e+01 xlo xhi
4.9579228791724805e-01 1.2779007712082624e+01 ylo yhi
6.8513359390303741e-01 2.1994776764397287e+01 zlo zhi
-3.1497076810081083e-03 -1.1229798547830876e-01 2.8275781522963807e-03 xy xz yz

Masses

1 12.0107
2 14.0067
3 1.00794
4 15.9994

Atoms # full

1 1 1 4.8641804036352110e-01 5.7342811722527385e+00 1.9909284369248113e+00 5.8298570367504920e+00 0 0 0
2 1 2 -5.3840258073875857e-01 4.4108771947573233e+00 1.8369412705263579e+00 5.6020477236709825e+00 0 0 0
3 1 3 4.4486322776741694e-01 3.9173440188234774e+00 2.2922514536508185e+00 4.5492552136959432e+00 0 0 0
4 1 3 4.2999822233336543e-01 3.7787094661883849e+00 1.3114087766863145e+00 6.3886051704241753e+00 0 0 0
5 1 2 -5.0917118449518739e-01 6.5628295203043203e+00 2.5625405079782633e+00 4.9786352533559439e+00 0 0 0
6 1 3 3.8215432331046334e-01 7.7260449766427373e+00 2.6260776258284606e+00 5.4626321563882287e+00 0 0 0
7 1 3 4.3154543095467285e-01 6.0357687482151832e+00 2.7543505648460465e+00 3.7675278131600249e+00 0 0 0
8 1 1 -1.1123153482902617e-01 6.3271134864262386e+00 1.5316802262598856e+00 7.1250048479114598e+00 0 0 0
9 1 2 4.3822926007147150e-01 5.3499416013078918e+00 7.8803487030933295e-01 8.1063301086097184e+00 0 0 0
10 1 4 -3.9703526019106139e-01 5.8095251043211587e+00 5.6840706283970377e-01 9.2945507721569456e+00 0 0 0
11 1 4 -4.9442749605814496e-01 4.1044539214218716e+00 6.3267434421386548e-01 7.8060601938841607e+00 0 0 0
12 1 2 3.4660595007988998e-01 7.6578546030692225e+00 1.5152736539745151e+00 7.4085847636526037e+00 0 0 0
13 1 4 -4.7653011633456493e-01 8.2047633078849920e+00 8.1746101344674593e-01 8.5814308636759691e+00 0 0 0
14 1 4 -4.4287367537679911e-01 8.5647988443363676e+00 2.0173449504727499e+00 6.6101615903752622e+00 0 0 0
15 1 1 4.4229507888063851e-01 4.5024936041234298e+00 4.9339336258226609e+00 1.1568240245979915e+01 0 0 0
16 1 2 -4.8960374480624658e-01 5.7872078211386215e+00 4.6308192424375596e+00 1.1886704622229809e+01 0 0 0
17 1 3 4.1046372530940833e-01 6.1087753615033886e+00 5.1280407453469463e+00 1.3047832799295819e+01 0 0 0
18 1 3 4.2861406182960760e-01 6.3980176382075165e+00 4.2994057466048847e+00 1.0968242197068863e+01 0 0 0
19 1 2 -5.0022108763078932e-01 3.6793956102687781e+00 5.5007735963183668e+00 1.2469668083891253e+01 0 0 0
20 1 3 3.9084175307063496e-01 2.4865099945701732e+00 5.5413162046869449e+00 1.2029404618934738e+01 0 0 0
21 1 3 4.2745809715472710e-01 4.2258747024035213e+00 5.6633078475192242e+00 1.3605910581173436e+01 0 0 0
22 1 1 -1.1313477072566017e-01 3.9622856004574101e+00 4.5257413883512658e+00 1.0257342736217327e+01 0 0 0
23 1 2 4.3709638406311080e-01 4.9640932776064401e+00 3.8341025963058151e+00 9.2233488240398085e+00 0 0 0
24 1 4 -3.8485183326455419e-01 4.5354205786762423e+00 3.5582654888086309e+00 8.0690134817250581e+00 0 0 0
25 1 4 -4.5103309529808061e-01 6.1536431746162581e+00 3.5116885010625354e+00 9.5814965965955459e+00 0 0 0
26 1 2 3.6939652744518481e-01 2.6770187171268027e+00 4.6097987807774228e+00 9.8997129465782479e+00 0 0 0
27 1 4 -4.7660219089527395e-01 2.2506969822682961e+00 3.9762032672972154e+00 8.7167201040188118e+00 0 0 0
28 1 4 -4.3300929049768183e-01 1.8016800012692773e+00 5.2052720961377048e+00 1.0716346477493481e+01 0 0 0
29 1 1 4.9549326675072647e-01 1.1429727321083565e+00 5.0975437515751105e+00 6.1608538837085502e+00 0 0 0
30 1 2 -5.1336991269474352e-01 2.4479711751791795e+00 5.3040980630067729e+00 6.4459202680651968e+00 0 0 0
31 1 3 4.2911838307418593e-01 2.8189323432659767e+00 4.7492708619782622e+00 7.5678938371861326e+00 0 0 0
32 1 3 4.2395952673161008e-01 3.0910054507252873e+00 5.8647145519066211e+00 5.6697141156127318e+00 0 0 0
33 1 2 -5.5462287022606405e-01 3.5477865606530035e-01 4.5284178910896511e+00 7.0577047710761631e+00 0 0 0
34 1 3 4.0441338417997053e-01 1.2929151487337300e+01 4.4665313802610482e+00 6.6487082547359995e+00 -1 0 0
35 1 3 4.3672127655153659e-01 8.2218377317963243e-01 4.3581963040287981e+00 8.1837450117695028e+00 0 0 0
36 1 1 -1.1266027321025152e-01 5.5742825989329314e-01 5.6523873870207684e+00 4.9061921695227522e+00 0 0 0
37 1 2 4.2430601806120682e-01 1.5105708807428107e+00 6.4710180790100287e+00 3.9493158489925024e+00 0 0 0
38 1 4 -3.9553868150147159e-01 9.0299924355642325e-01 6.8532834984336644e+00 2.8841483695487371e+00 0 0 0
39 1 4 -4.7737237387831377e-01 2.7420320384104877e+00 6.6178168721287856e+00 4.2525841163455391e+00 0 0 0
40 1 2 3.9398914792858519e-01 1.2979621532607045e+01 5.6108396162960474e+00 4.5905351280222435e+00 -1 0 0
41 1 4 -4.7731344386513125e-01 1.2477946374165313e+01 6.1559346174109395e+00 3.4125194402869292e+00 0 0 0
42 1 4 -4.5455903247096247e-01 1.2171919336626367e+01 5.0098119920900253e+00 5.4313426733317574e+00 0 0 0
43 1 1 4.8615680972304282e-01 2.2664803645098739e+00 2.3290463628368254e+00 2.1744055236319532e+01 0 0 -1
44 1 2 -5.2924058888336778e-01 9.4686294539315607e-01 2.4076969606117560e+00 2.1545897149393788e+01 1 0 -1
45 1 3 4.3511835432048290e-01 5.7393214898268818e-01 1.8059312525002946e+00 2.0458202783366936e+01 1 0 0
46 1 3 4.1251669147588549e-01 4.6067614367264992e-01 2.8564880182153729e+00 1.0987171426910098e+00 1 0 0
47 1 2 -5.2671573577501485e-01 3.1216512215912249e+00 1.9269247043338176e+00 2.0831519702429887e+01 0 0 0
48 1 3 3.9623874733839193e-01 4.2873471918557557e+00 1.9107576282229006e+00 2.1242977094934112e+01 0 0 0
49 1 3 4.4342862141625711e-01 2.6895010637606331e+00 1.7038066168663821e+00 1.9620657024922544e+01 0 0 0
50 1 1 -1.2592492234096428e-01 2.9510490946368644e+00 2.7500871371773212e+00 1.7767495413263197e+00 0 0 0
51 1 2 4.0965047575167096e-01 1.9905725958734184e+00 3.3089133470910697e+00 2.8683425004690899e+00 0 0 0
52 1 4 -3.7932163173135247e-01 2.4009089707180018e+00 3.5428107478888649e+00 4.0558572937502788e+00 0 0 0
53 1 4 -4.5262363385167187e-01 7.4789866761266000e-01 3.5580975888742397e+00 2.5522930319676989e+00 1 0 0
54 1 2 3.5431039647681328e-01 4.2282374843738939e+00 2.5793064711203861e+00 2.1312511200479771e+00 0 0 0
55 1 4 -4.8578461452824573e-01 4.6566862940990967e+00 3.1063643191280499e+00 3.4250520081575471e+00 0 0 0
56 1 4 -4.4560879213507920e-01 5.1361825808159249e+00 2.1574737793652865e+00 1.2809612211154331e+00 0 0 0
57 1 1 4.7859736844668044e-01 1.2729494749497150e+01 2.0032538775893096e+00 5.9017100326380314e+00 0 0 0
58 1 2 -5.5560804116322593e-01 1.1395732225480995e+01 2.0395876149774455e+00 5.6899149425208666e+00 0 0 0
59 1 3 4.3142767458434533e-01 1.1030861228638516e+01 2.5040062694421943e+00 4.5185244978179790e+00 0 0 0
60 1 3 4.4078693707370542e-01 1.0807861166803963e+01 1.6878377276131054e+00 6.5171408053903805e+00 0 0 0
61 1 2 -5.6310599402882011e-01 1.3592011276864138e+01 2.2981614490945534e+00 4.9301664649770958e+00 0 0 0
62 1 3 4.0695841735156069e-01 9.6282367348560127e-01 2.2177153800977534e+00 5.3216274309582960e+00 1 0 0
63 1 3 4.4807592880574554e-01 1.3063497127630987e+01 2.4572530507101216e+00 3.8107275110322272e+00 0 0 0
64 1 1 -1.2012026441743451e-01 1.3246246261200596e+01 1.5507471462231952e+00 7.2486696448017547e+00 0 0 0
65 1 2 4.2619089700806567e-01 1.2260344610388248e+01 8.2665747697493563e-01 8.2001003494483182e+00 0 0 0
66 1 4 -4.1628885582860875e-01 1.2733528337126906e+01 1.2687367531387522e+01 9.3291946377344317e+00 0 -1 0
67 1 4 -4.8630166769014976e-01 1.1050458248877170e+01 6.6235477903546069e-01 7.7895483662935634e+00 0 0 0
68 1 2 3.7049359772969265e-01 8.1220313529192756e-01 1.6209507911749721e+00 7.5395819802128869e+00 1 0 0
69 1 4 -4.6948829531025948e-01 1.2705486269022992e+00 1.0261911583257848e+00 8.7696223192334291e+00 0 0 0
70 1 4 -4.3641823542083946e-01 1.7033380193930077e+00 2.0649255192464908e+00 6.7063713390436730e+00 0 0 0
71 1 1 4.8783101598809092e-01 1.1361592800512344e+01 5.0136651656896243e+00 1.1500570642985043e+01 0 0 0
72 1 2 -5.9799100513291725e-01 1.2672086451560007e+01 5.0202048685156910e+00 1.1678720999720275e+01 -1 0 0
73 1 3 4.3830820811573329e-01 1.3094224474021180e+01 5.4157079426962262e+00 1.2842270016096858e+01 -1 0 0
74 1 3 4.4638494013311492e-01 1.3261048018843816e+01 4.5813188958433813e+00 1.0949912973812006e+01 -1 0 0
75 1 2 -5.1185614728721851e-01 1.0459694870651393e+01 5.3668633522646356e+00 1.2450581094011037e+01 0 0 0
76 1 3 3.9742829314385542e-01 9.2582627786044913e+00 5.4005006374188254e+00 1.2093779070733239e+01 0 0 0
77 1 3 4.3620266831804333e-01 1.1039208600035114e+01 5.4542760042755134e+00 1.3607559500231547e+01 0 0 0
78 1 1 -1.1213261769502988e-01 1.0791960204718993e+01 4.5694369805094057e+00 1.0171162550169434e+01 0 0 0
79 1 2 4.2118143109145467e-01 1.1742625870370748e+01 3.8506902445740705e+00 9.2159018903008931e+00 0 0 0
80 1 4 -3.8400376472439302e-01 1.1374494105835879e+01 3.5607633416712718e+00 8.0421079712444197e+00 0 0 0
81 1 4 -4.5700452678643744e-01 1.2972489303234454e+01 3.5545666831318670e+00 9.6027833071178073e+00 -1 0 0
82 1 2 3.7703003471079838e-01 9.4507187976289657e+00 4.6074223258352580e+00 9.8958561541485111e+00 0 0 0
83 1 4 -4.7138727467036667e-01 9.0315403463204600e+00 4.0408651035104040e+00 8.6514857938118332e+00 0 0 0
84 1 4 -4.2627701636095355e-01 8.5385938710968894e+00 5.0390138954589760e+00 1.0719964775789419e+01 0 0 0
85 1 1 4.7145856582022777e-01 7.8843076862116002e+00 5.2063998903088393e+00 6.2432158105527051e+00 0 0 0
86 1 2 -5.1730519451225898e-01 9.2109575800122698e+00 5.3570581086321774e+00 6.4496307461586344e+00 0 0 0
87 1 3 4.3740789190223917e-01 9.6072466460122836e+00 4.9308583300077009e+00 7.5209313750278834e+00 0 0 0
88 1 3 4.2056767009175133e-01 9.8848171560521862e+00 5.6714054573690289e+00 5.4785099568797389e+00 0 0 0
89 1 2 -5.4715517699721705e-01 7.0445952537829450e+00 4.7276209891566712e+00 7.1544757543860777e+00 0 0 0
90 1 3 4.0798418320210356e-01 5.9053406220092475e+00 4.6521054119157865e+00 6.7632031826597254e+00 0 0 0
91 1 3 4.3937434413769144e-01 7.6204619937302764e+00 4.4554322735921961e+00 8.2723732793422862e+00 0 0 0
92 1 1 -1.0662892436295732e-01 7.3387422514328229e+00 5.6079717901297421e+00 4.8984615608612510e+00 0 0 0
93 1 2 4.3003852511616375e-01 8.2546079355317534e+00 6.3169084077621607e+00 3.8448057327487972e+00 0 0 0
94 1 4 -3.9193807570722439e-01 7.7182900923675648e+00 6.6996297132242422e+00 2.7729750606774872e+00 0 0 0
95 1 4 -4.8699862361965784e-01 9.5231686260673403e+00 6.4554300101530693e+00 4.1732193884562889e+00 0 0 0
96 1 2 3.3731060754991105e-01 6.0462411878156130e+00 5.4721149115388679e+00 4.5848267069387596e+00 0 0 0
97 1 4 -4.5777549112597771e-01 5.5533666156695851e+00 6.0644489074303021e+00 3.3229191809694205e+00 0 0 0
98 1 4 -4.2930194218670098e-01 5.1512017448886569e+00 5.0279895496766409e+00 5.4207483491294868e+00 0 0 0
99 1 1 4.6910397377437763e-01 9.1778138810583201e+00 2.0976819801693001e+00 2.1885259737163636e+01 0 0 -1
100 1 2 -5.1045136597988428e-01 7.8155457099822030e+00 2.0786436609475230e+00 2.1722338708719889e+01 0 0 -1
101 1 3 4.3625394179670474e-01 7.5252511472375101e+00 1.6784144996837198e+00 2.0625056232190836e+01 0 0 0
102 1 3 4.3319994106504073e-01 7.2918016782286905e+00 2.5116068460261523e+00 1.3787069747476877e+00 0 0 0
103 1 2 -5.5178875775862679e-01 1.0019062370411115e+01 1.7796365762032120e+00 2.0891741651369465e+01 0 0 0
104 1 3 3.9344894940049335e-01 1.1162505121253432e+01 1.7745889820284813e+00 2.1238365772052823e+01 0 0 0
105 1 3 4.4769303661604753e-01 9.5590447829513820e+00 1.6285495903064475e+00 1.9723973092269908e+01 0 0 0
106 1 1 -1.1955267520701154e-01 9.8604988060283976e+00 2.5686866553791208e+00 1.8716199757170282e+00 0 0 0
107 1 2 4.4274557079760302e-01 8.9728646867710697e+00 3.2595343691609555e+00 2.9161130853640840e+00 0 0 0
108 1 4 -4.0216907514083328e-01 9.4841629464828507e+00 3.7690699279496713e+00 3.9475235879480199e+00 0 0 0
109 1 4 -4.8667480111019801e-01 7.6942052649226733e+00 3.3577609001951534e+00 2.6472346217083018e+00 0 0 0
110 1 2 3.6630612041669131e-01 1.1199492276756914e+01 2.5115870168131136e+00 2.1504812992560831e+00 0 0 0
111 1 4 -4.6349250659466507e-01 1.1734055719228579e+01 3.0981690090367993e+00 3.3407591308970837e+00 0 0 0
112 1 4 -4.3015223096025296e-01 1.2036470321271301e+01 1.9660765808862184e+00 1.3020224634019446e+00 0 0 0
113 1 1 4.7688095027637495e-01 5.8028507469981125e+00 8.0636073115014639e+00 5.9330766129898622e+00 0 0 0
114 1 2 -5.3718130238682560e-01 4.4541701130818216e+00 8.0614862258155426e+00 5.7352254917435834e+00 0 0 0
115 1 3 4.3120134928545012e-01 4.1065086732654219e+00 8.5882894703664121e+00 4.6477144729205673e+00 0 0 0
116 1 3 4.2816651230950026e-01 3.9040155023473697e+00 7.6874987739588887e+00 6.6395761453554520e+00 0 0 0
117 1 2 -5.4297060433576916e-01 6.6053829109810200e+00 8.3878083777071772e+00 4.9316907947103115e+00 0 0 0
118 1 3 3.9998377561406390e-01 7.7587311233904295e+00 8.4692478038867947e+00 5.3179398325121960e+00 0 0 0
119 1 3 4.4606798091802097e-01 6.1426823300381930e+00 8.5186143023577650e+00 3.7600592278259195e+00 0 0 0
120 1 1 -1.1976803014120374e-01 6.4598538098995535e+00 7.6080967217620827e+00 7.2089204447476147e+00 0 0 0
121 1 2 4.2118643562323549e-01 5.4862288972970550e+00 6.8828963009936821e+00 8.1702962216060087e+00 0 0 0
122 1 4 -3.7310364950176794e-01 5.9607230489001761e+00 6.3085524876898686e+00 9.2052703414267700e+00 0 0 0
123 1 4 -4.7239429272903738e-01 4.2331267903002132e+00 6.7211729481555684e+00 7.9068065913783192e+00 0 0 0
124 1 2 3.4804236139174932e-01 7.7725876457435197e+00 7.7018842724100196e+00 7.4740610868223305e+00 0 0 0
125 1 4 -4.7060705454723206e-01 8.3065438846044266e+00 7.0320780181984839e+00 8.6566731769147118e+00 0 0 0
126 1 4 -4.1357825359186201e-01 8.6315915742738110e+00 8.1595748015224228e+00 6.5875711900507241e+00 0 0 0
127 1 1 4.6646144860765953e-01 4.5687872630825614e+00 1.1104121225666152e+01 1.1372792250562426e+01 0 0 0
128 1 2 -5.4431840937882869e-01 5.9305070230878085e+00 1.1058684358996715e+01 1.1533406313518157e+01 0 0 0
129 1 3 4.3464315099077827e-01 6.2920210748814274e+00 1.1381811419593706e+01 1.2628881622536616e+01 0 0 0
130 1 3 4.2185680765983574e-01 6.5058994740821854e+00 1.0629244655102159e+01 1.0602678316087724e+01 0 0 0
131 1 2 -5.1579455934196783e-01 3.7678408638398664e+00 1.1479770701614093e+01 1.2335613322437698e+01 0 0 0
132 1 3 3.9142835155123523e-01 2.5443516012893417e+00 1.1462885729088384e+01 1.1984064009094078e+01 0 0 0
133 1 3 4.3290463888771291e-01 4.3616779012396218e+00 1.1860660005712248e+01 1.3433131785058942e+01 0 0 0
134 1 1 -1.1076744345504402e-01 3.9815757007469990e+00 1.0637825694783391e+01 1.0085273114154155e+01 0 0 0
135 1 2 4.0821242051568019e-01 4.9308505498841182e+00 9.9060736486637317e+00 9.0742676835761049e+00 0 0 0
136 1 4 -3.6449294858732995e-01 4.3996506024267710e+00 9.5818358159632027e+00 7.9520573655718287e+00 0 0 0
137 1 4 -4.9476018413389611e-01 6.1576347567443444e+00 9.6332379879580721e+00 9.3530660499707139e+00 0 0 0
138 1 2 3.3730610904135477e-01 2.6890126905589451e+00 1.0872178129293779e+01 9.7969364068503335e+00 0 0 0
139 1 4 -4.5026054776896252e-01 2.2183579453382922e+00 1.0329965509716683e+01 8.5275180295640212e+00 0 0 0
140 1 4 -4.2865442996384473e-01 1.8103766215161528e+00 1.1394837332311337e+01 1.0632403790998184e+01 0 0 0
141 1 1 4.5198408271762130e-01 9.6665593179593778e-01 1.1467065750536452e+01 6.0984074196943538e+00 0 0 0
142 1 2 -5.1702270943220308e-01 2.3212294359072096e+00 1.1617155725091589e+01 6.3328367479182761e+00 0 0 0
143 1 3 4.2481468255503552e-01 2.7530847511950225e+00 1.1277073344253399e+01 7.5059686083110133e+00 0 0 0
144 1 3 4.1730162576931329e-01 2.9034469162839867e+00 1.2005481433962238e+01 5.4540674407451775e+00 0 0 0
145 1 2 -5.0655189769400144e-01 1.9486381195603583e-01 1.0968406825026442e+01 7.0615856143841507e+00 0 0 0
146 1 3 3.8822936541811681e-01 1.2725941734500338e+01 1.0945919291143984e+01 6.6724061229695799e+00 -1 0 0
147 1 3 4.3221715937084454e-01 7.7156028127447451e-01 1.0762064510751522e+01 8.1724250326165446e+00 0 0 0
148 1 1 -1.1749465578243548e-01 3.8271219090597580e-01 1.1921873579161179e+01 4.8008262932853798e+00 0 0 0
149 1 2 4.3000920130692472e-01 1.4174318301404520e+00 1.2550007217469506e+01 3.7628276266179728e+00 0 0 0
150 1 4 -3.9948391528617599e-01 9.1946503152046732e-01 5.9982747446940754e-01 2.6595341647941986e+00 0 1 0
151 1 4 -5.0757744667114180e-01 2.6055223920970008e+00 6.1410152777238980e-01 4.1500493628521600e+00 0 1 0
152 1 2 3.4805048599445748e-01 1.2843243485126790e+01 1.1833586840454004e+01 4.5156291537620863e+00 -1 0 0
153 1 4 -4.7506686277693883e-01 1.2312677259848453e+01 1.2401111943384006e+01 3.3127526392888216e+00 0 0 0
154 1 4 -4.4715657815900878e-01 1.1988403365477105e+01 1.1326174897823574e+01 5.4143910847536070e+00 0 0 0
155 1 1 4.7062053658810704e-01 2.3338848216003463e+00 8.2736394846416559e+00 2.1935008065185947e+01 0 0 -1
156 1 2 -4.9136118519927802e-01 1.0014466053753708e+00 8.3410371983291736e+00 2.1690483865084722e+01 1 0 -1
157 1 3 4.2046310031035483e-01 5.5386933833618524e-01 8.0160196741098382e+00 2.0490857374550465e+01 1 0 0
158 1 3 4.2813934484441185e-01 4.8975363849862241e-01 8.7171839685199934e+00 1.2868278000344238e+00 1 0 0
159 1 2 -5.4330345997383866e-01 3.1437484864767957e+00 7.8466718968620608e+00 2.0982557093504084e+01 0 0 0
160 1 3 3.9909497369907104e-01 4.3149226064629618e+00 7.7929107729937863e+00 2.1369954916684833e+01 0 0 0
161 1 3 4.3974057939669609e-01 2.5759745670424041e+00 7.7259893615566293e+00 1.9875381422626077e+01 0 0 0
162 1 1 -1.0925549513453067e-01 2.9746697962065296e+00 8.7648203136695031e+00 1.9493544751393383e+00 0 0 0
163 1 2 4.1092793950986622e-01 2.0126482948051470e+00 9.4731153352655149e+00 2.9090276245843172e+00 0 0 0
164 1 4 -3.9004707226886492e-01 2.4958332553449205e+00 9.9713724286743215e+00 3.9922807953273942e+00 0 0 0
165 1 4 -4.6526572429996449e-01 7.6097093547781780e-01 9.6227881121068783e+00 2.5722104808746007e+00 1 0 0
166 1 2 3.5137388477979054e-01 4.2869225645846916e+00 8.6688295239340896e+00 2.2259882830828852e+00 0 0 0
167 1 4 -4.5217672590721331e-01 4.8434842799243132e+00 9.2208513234808258e+00 3.4432435273403508e+00 0 0 0
168 1 4 -4.1959541242995246e-01 5.1623014732210404e+00 8.1561526648089746e+00 1.3667807073479876e+00 0 0 0
169 1 1 4.5637542526914854e-01 1.2731508072329957e+01 8.0805596569770231e+00 5.9022832331725796e+00 0 0 0
170 1 2 -5.1282314404744145e-01 1.1377686200858326e+01 8.0767218578546256e+00 5.7349081427012631e+00 0 0 0
171 1 3 4.3351755335240344e-01 1.0924398059859383e+01 8.5779873690802937e+00 4.6552170739997072e+00 0 0 0
172 1 3 4.2396337811014151e-01 1.0849039608972339e+01 7.4846433878184095e+00 6.5677975438158054e+00 0 0 0
173 1 2 -5.2477979838435995e-01 1.3562816474300030e+01 8.5549657824756871e+00 4.9415967455697345e+00 0 0 0
174 1 3 3.9915906564371356e-01 9.5501126239085365e-01 8.6410991575551002e+00 5.3122318443485019e+00 1 0 0
175 1 3 4.4176344724339606e-01 1.3029137247392608e+01 8.6748578369953151e+00 3.7857115587707133e+00 0 0 0
176 1 1 -1.0324422623478317e-01 1.3265831991949867e+01 7.5621949338063095e+00 7.1907061375819605e+00 0 0 0
177 1 2 4.3059372598380169e-01 1.2304607157941348e+01 6.7670054092935779e+00 8.1750579754130754e+00 0 0 0
178 1 4 -4.1446088422070582e-01 1.2816771576504424e+01 6.4082281418707527e+00 9.2830090764488862e+00 0 0 0
179 1 4 -4.8218809963194165e-01 1.1075081619721505e+01 6.5712177237810252e+00 7.8675158640622120e+00 0 0 0
180 1 2 3.3226332529901714e-01 8.1767207509193285e-01 7.6026523462055158e+00 7.4875446112718800e+00 1 0 0
181 1 4 -4.6008778068368444e-01 1.3019223998051610e+00 6.9088643656479132e+00 8.7084506843533198e+00 0 0 0
182 1 4 -4.2953639335083410e-01 1.6479603195984536e+00 8.2029006559697208e+00 6.6644035575515437e+00 0 0 0
183 1 1 4.5609894051001948e-01 1.1518809239349407e+01 1.1023045986307519e+01 1.1397929625687221e+01 0 0 0
184 1 2 -5.1829391112332579e-01 1.2847350221502662e+01 1.0987543500747119e+01 1.1536724899214796e+01 -1 0 0
185 1 3 4.3096422439841459e-01 1.3207430953174534e+01 1.1463538563238863e+01 1.2656713292118010e+01 -1 0 0
186 1 3 4.3212960962644026e-01 1.3319386817020421e+01 1.0817944260990647e+01 1.0501365151766455e+01 -1 0 0
187 1 2 -5.0193765610886132e-01 1.0683539945567725e+01 1.1358352200264132e+01 1.2371529713915278e+01 0 0 0
188 1 3 3.8849326251795280e-01 9.4900931127081378e+00 1.1242333957442991e+01 1.1973668640364053e+01 0 0 0
189 1 3 4.3112968370675797e-01 1.1263189243884483e+01 1.1519035222757505e+01 1.3541807447906638e+01 0 0 0
190 1 1 -1.0850117066302814e-01 1.0898669730904198e+01 1.0467962380361065e+01 1.0090164287946260e+01 0 0 0
191 1 2 4.0362945389343946e-01 1.1840160109789029e+01 9.8645489049428328e+00 9.0696555165385320e+00 0 0 0
192 1 4 -3.6752644909363064e-01 1.1231774602768439e+01 9.3708758751818237e+00 8.0571847243997130e+00 0 0 0
193 1 4 -4.8163614836215302e-01 1.3116392335637389e+01 9.8148761999979612e+00 9.2868702255179585e+00 -1 0 0
194 1 2 3.3354643698064368e-01 9.5824095809518148e+00 1.0542730225963716e+01 9.8632956037075630e+00 0 0 0
195 1 4 -4.6037765268328013e-01 9.0997218068937364e+00 1.0035437978980383e+01 8.5874963703181706e+00 0 0 0
196 1 4 -4.4777565535176378e-01 8.6704847950857591e+00 1.1036684313033774e+01 1.0714500276183605e+01 0 0 0
197 1 1 5.0129024103773412e-01 8.0200283589393919e+00 1.1350716162285213e+01 6.1496245745670199e+00 0 0 0
198 1 2 -5.0886967800517147e-01 9.3156126774239389e+00 1.1483641507189919e+01 6.3609306695973524e+00 0 0 0
199 1 3 4.1863349354949536e-01 9.6296803372831121e+00 1.0973342542115315e+01 7.4516907102887231e+00 0 0 0
200 1 3 4.2837830648327652e-01 1.0032879686497784e+01 1.2140687725235747e+01 5.6266211485556576e+00 0 0 0
201 1 2 -5.6153600746947496e-01 7.1828897483183720e+00 1.0744797278743107e+01 7.0104722148042393e+00 0 0 0
202 1 3 4.0777655155476400e-01 6.0586750688851847e+00 1.0777610464450724e+01 6.7065566900490161e+00 0 0 0
203 1 3 4.2348642625521143e-01 7.7132730436951702e+00 1.0448949024619502e+01 8.1712806180327959e+00 0 0 0
204 1 1 -1.1593992460483589e-01 7.3878356413591222e+00 1.1883437653038222e+01 4.8941446732110929e+00 0 0 0
205 1 2 4.3824362970631286e-01 8.3862399573611039e+00 1.2530229776358500e+01 3.8856251227705347e+00 0 0 0
206 1 4 -4.0179756636419950e-01 7.9082139293516764e+00 5.9283584722556570e-01 2.7413610061416156e+00 0 1 0
207 1 4 -4.7634832884081257e-01 9.6115471123564618e+00 1.2754273344176571e+01 4.2271361839816830e+00 0 0 0
208 1 2 3.7276018332312238e-01 6.0938192115251582e+00 1.1786073853092368e+01 4.5562695026541959e+00 0 0 0
209 1 4 -4.6876863256745754e-01 5.6169091305672918e+00 1.2354717722587324e+01 3.3160709184034047e+00 0 0 0
210 1 4 -4.3580544759549389e-01 5.2473724182932875e+00 1.1340080128775003e+01 5.4638298440378046e+00 0 0 0
211 1 1 4.9137708728652474e-01 9.1299160846664194e+00 8.1808002771592925e+00 2.1944787763135800e+01 0 0 -1
212 1 2 -5.3023493721595216e-01 7.8299214650240065e+00 8.4146240418940152e+00 2.1632148115574431e+01 0 0 -1
213 1 3 4.2689223306760427e-01 7.3948528031035581e+00 8.0484226306909932e+00 2.0453905278851074e+01 0 0 0
214 1 3 4.2862520197003112e-01 7.4109766359235314e+00 8.9596244059108407e+00 1.1173412212710885e+00 0 0 0
215 1 2 -5.3744562202751311e-01 1.0002914278010500e+01 7.7150636541083273e+00 2.1082395688966876e+01 0 0 0
216 1 3 3.9876006281526372e-01 1.1231979323005401e+01 7.4975119379271398e+00 2.1442533506448946e+01 0 0 0
217 1 3 4.3002254503164544e-01 9.5313594353286675e+00 7.4952029875522728e+00 1.9938801382380127e+01 0 0 0
218 1 1 -1.2025933919625380e-01 9.8050420555317093e+00 8.6068010313437426e+00 1.9763418651631448e+00 0 0 0
219 1 2 4.1580266016730005e-01 8.8272756833266737e+00 9.3721719519192206e+00 2.9153855406138192e+00 0 0 0
220 1 4 -3.7969645371053096e-01 9.2400918146940167e+00 9.6862900423933702e+00 4.0907053139968923e+00 0 0 0
221 1 4 -4.6873608883363838e-01 7.6442680972668304e+00 9.6856337539257105e+00 2.5471542124085209e+00 0 0 0
222 1 2 3.7057737177961297e-01 1.1105632528522570e+01 8.5122742627722374e+00 2.2259584044448544e+00 0 0 0
223 1 4 -4.8101472302440323e-01 1.1632106730536863e+01 9.1168040538962778e+00 3.4142080326243143e+00 0 0 0
224 1 4 -4.3994400615302909e-01 1.2014263492584224e+01 8.0879333194142227e+00 1.3391006700040426e+00 0 0 0
225 1 1 4.8841073546313446e-01 5.7552434775791150e+00 2.0507513908118522e+00 1.6471259246890746e+01 0 0 0
226 1 2 -5.2702895538524386e-01 4.4131022666625173e+00 2.0650872859240206e+00 1.6311529617786796e+01 0 0 0
227 1 3 4.2600811790123011e-01 4.0355195362054062e+00 2.6149758937060810e+00 1.5227060715844873e+01 0 0 0
228 1 3 4.2849087727668889e-01 3.8220084649896249e+00 1.8564374672124271e+00 1.7328652857060796e+01 0 0 0
229 1 2 -5.6274961510669619e-01 6.6185915103144595e+00 2.4111120926804901e+00 1.5514329684960556e+01 0 0 0
230 1 3 4.0039391125383511e-01 7.8522388021018203e+00 2.3634895209528044e+00 1.5815039727298466e+01 0 0 0
231 1 3 4.4415448444738270e-01 6.1522273483782248e+00 2.7344775871420728e+00 1.4451508699971003e+01 0 0 0
232 1 1 -1.2586440519011655e-01 6.3816085631036801e+00 1.6252411139700720e+00 1.7768009837257864e+01 0 0 0
233 1 2 4.5954129989663312e-01 5.4372919690468766e+00 1.0362422775974722e+00 1.8872142616524016e+01 0 0 0
234 1 4 -4.0244163002194089e-01 5.9364464221049031e+00 6.7199927480964372e-01 1.9963821545780881e+01 0 0 0
235 1 4 -4.8987941426708076e-01 4.1764557937092279e+00 8.9152635707012484e-01 1.8577595115892514e+01 0 0 0
236 1 2 3.9821434758907687e-01 7.7106278235787835e+00 1.5759327062510513e+00 1.8042439698100225e+01 0 0 0
237 1 4 -4.7866582052490647e-01 8.1868664461893488e+00 1.1295486176274552e+00 1.9274719038297043e+01 0 0 0
238 1 4 -4.6109496523540400e-01 8.5571294770142270e+00 2.0494556073326997e+00 1.7125622454129740e+01 0 0 0
239 1 1 4.3863442869351443e-01 4.5019275720794925e+00 5.0798313931407462e+00 8.4579232989510467e-01 0 0 1
240 1 2 -5.0061549657878213e-01 5.8698374621506018e+00 5.0175256980493890e+00 1.0026557469808379e+00 0 0 1
241 1 3 4.2409186887493350e-01 6.2311283020511690e+00 5.3639357422495273e+00 2.1894874067187380e+00 0 0 0
242 1 3 4.3876679227254600e-01 6.3487297873412833e+00 4.8981981154212075e+00 2.1340282014972466e+01 0 0 0
243 1 2 -5.0794255514477604e-01 3.6754792304901938e+00 5.5120089819918654e+00 1.8566736320705588e+00 0 0 0
244 1 3 3.9151921965902020e-01 2.5244950232145276e+00 5.5120342431771343e+00 1.5332197572530331e+00 0 0 0
245 1 3 4.2948569829859934e-01 4.2071039735367020e+00 5.4636265606913899e+00 3.0452981240437316e+00 0 0 0
246 1 1 -1.2665835392362257e-01 3.7989001123198007e+00 4.6344197381372636e+00 2.0863959516609640e+01 0 0 0
247 1 2 4.2267635359113748e-01 4.7871634837739032e+00 3.9956233808850850e+00 1.9858174971763120e+01 0 0 0
248 1 4 -4.2515168482053262e-01 4.2928398165820552e+00 3.5036413316949502e+00 1.8801869426805858e+01 0 0 0
249 1 4 -4.6416712822170236e-01 6.0467649749941499e+00 3.8635565110041128e+00 2.0146959706182059e+01 0 0 0
250 1 2 3.7956419331812208e-01 2.4827856617578417e+00 4.7456079293810323e+00 2.0581929684000180e+01 0 0 0
251 1 4 -4.8259749567952104e-01 1.8935024459683758e+00 4.1991550680054068e+00 1.9399151153211896e+01 0 0 0
252 1 4 -4.3256588674044172e-01 1.6693829648562857e+00 5.2485339954897405e+00 2.1485184195342626e+01 0 0 0
253 1 1 4.6024408040910070e-01 1.0274546632774519e+00 5.2024805131748098e+00 1.6800768619570455e+01 0 0 0
254 1 2 -4.8087883380618107e-01 2.3469561328213926e+00 5.2111982409288080e+00 1.6991662694047399e+01 0 0 0
255 1 3 4.1479666735699966e-01 2.5679300700458114e+00 4.6527816973846470e+00 1.8173261051002591e+01 0 0 0
256 1 3 4.0914944682843679e-01 2.9903838828278824e+00 5.7804220823817172e+00 1.6092933620196526e+01 0 0 0
257 1 2 -5.4494425376806432e-01 1.5949641745805643e-01 4.7446173869647303e+00 1.7801730177743437e+01 0 0 0
258 1 3 4.0768499820295884e-01 1.2758645721220956e+01 4.8171508354782091e+00 1.7605174801547861e+01 -1 0 0
259 1 3 4.4019096799472662e-01 5.4011013720092316e-01 4.8017666533905796e+00 1.8956092790732967e+01 0 0 0
260 1 1 -1.1729010712628343e-01 4.2335249376996004e-01 5.6628563434395742e+00 1.5591921356353337e+01 0 0 0
261 1 2 4.5025092722178200e-01 1.4233751872907718e+00 6.3562577936822082e+00 1.4460470947335171e+01 0 0 0
262 1 4 -4.0830707899030011e-01 9.1733025310417005e-01 6.6987109447822775e+00 1.3369375577950045e+01 0 0 0
263 1 4 -4.9397776797561771e-01 2.6557332164121510e+00 6.5996306177609672e+00 1.4765969897738890e+01 0 0 0
264 1 2 3.9870625967537565e-01 1.2864612747300308e+01 5.6085230054372586e+00 1.5298722141986635e+01 -1 0 0
265 1 4 -4.8096880125946451e-01 1.2361074590320429e+01 6.0524681278100614e+00 1.4021619491767686e+01 0 0 0
266 1 4 -4.4478949831825454e-01 1.2067981226995759e+01 5.1169952509660117e+00 1.6186279590893569e+01 0 0 0
267 1 1 5.0710580455603371e-01 2.3268695758407936e+00 2.0870744681667830e+00 1.1246842951589029e+01 0 0 0
268 1 2 -5.3144659351222157e-01 1.0221980815836504e+00 2.1935181064821445e+00 1.1081678695105190e+01 1 0 0
269 1 3 4.3349327427153067e-01 5.9910439988523523e-01 1.6450135197336011e+00 1.0018152358099668e+01 1 0 0
270 1 3 4.1742640999194641e-01 3.4904653286889337e-01 2.7378670408167372e+00 1.1891328993204285e+01 1 0 0
271 1 2 -5.5900298562929363e-01 3.2048817471542668e+00 1.6060476487828530e+00 1.0352162312064676e+01 0 0 0
272 1 3 4.1547654969851411e-01 4.3401395504514735e+00 1.5194773962243839e+00 1.0696352236656134e+01 0 0 0
273 1 3 4.4049579909994185e-01 2.6897570051129138e+00 1.4611173942867492e+00 9.1961358456640845e+00 0 0 0
274 1 1 -1.1440564341787497e-01 2.8991297645996279e+00 2.5575701193982345e+00 1.2561079445952730e+01 0 0 0
275 1 2 4.0511623577029543e-01 2.0212519855140072e+00 3.3945197656844779e+00 1.3491764828845323e+01 0 0 0
276 1 4 -3.8770873855228327e-01 2.5417291009521321e+00 3.8699205043152420e+00 1.4574032710797290e+01 0 0 0
277 1 4 -4.8072807732362854e-01 7.5983085977812481e-01 3.5707609151945294e+00 1.3176065860952798e+01 1 0 0
278 1 2 3.7648811945639749e-01 4.2354480690680507e+00 2.4908322752987413e+00 1.2852036333826490e+01 0 0 0