ITEM: TIMESTEP
0
ITEM: NUMBER OF ATOMS
672
ITEM: BOX BOUNDS xy xz yz pp pp pp
0.0000000000000000e+00 2.9982000351000000e+01 0.0000000000000000e+00
0.0000000000000000e+00 1.2154000282300000e+01 0.0000000000000000e+00
0.0000000000000000e+00 2.0017000198400002e+01 0.0000000000000000e+00
ITEM: ATOMS id type xs ys zs
1 1 0.142632 0.0712383 0.155281
2 1 0.642632 0.0712384 0.155281
3 1 0.357368 0.928762 0.655281
4 1 0.857369 0.928762 0.655281
5 1 0.392631 0.928762 0.155281
6 1 0.892631 0.928762 0.155281
7 1 0.107368 0.0712382 0.655281
8 1 0.607368 0.0712383 0.655281
9 1 0.142631 0.571237 0.155281
10 1 0.642631 0.571237 0.155281
11 1 0.357369 0.428763 0.655281
12 1 0.857369 0.428763 0.655281
13 1 0.392631 0.428762 0.155281
14 1 0.892631 0.428763 0.155281
15 1 0.107369 0.571237 0.655281
16 1 0.607369 0.571237 0.655281
17 1 0.188741 0.0459188 0.151697
18 1 0.688741 0.0459186 0.151697
19 1 0.311259 0.954081 0.651697
20 1 0.811259 0.954081 0.651697
21 1 0.438741 0.954081 0.151697
22 1 0.938741 0.954081 0.151697
23 1 0.0612594 0.0459189 0.651697
24 1 0.561259 0.0459188 0.651697
25 1 0.188741 0.545919 0.151697
26 1 0.688741 0.545919 0.151697
27 1 0.311259 0.454081 0.651697
28 1 0.811259 0.454081 0.651697
29 1 0.438741 0.454081 0.151697
30 1 0.938741 0.454081 0.151697
31 1 0.0612593 0.545919 0.651697
32 1 0.561259 0.545919 0.651697
33 1 0.21436 0.114973 0.110394
34 1 0.71436 0.114974 0.110394
35 1 0.28564 0.885026 0.610394
36 1 0.78564 0.885026 0.610394
37 1 0.46436 0.885026 0.110394
38 1 0.96436 0.885026 0.110394
39 1 0.03564 0.114973 0.610394
40 1 0.53564 0.114974 0.610394
41 1 0.21436 0.614974 0.110394
42 1 0.71436 0.614974 0.110394
43 1 0.28564 0.385026 0.610394
44 1 0.78564 0.385026 0.610394
45 1 0.46436 0.385026 0.110394
46 1 0.96436 0.385026 0.110394
47 1 0.0356399 0.614974 0.610394
48 1 0.53564 0.614974 0.610394
49 1 0.194887 0.201679 0.0732545
50 1 0.694887 0.201679 0.0732545
51 1 0.305113 0.79832 0.573254
52 1 0.805113 0.79832 0.573254
53 1 0.444887 0.79832 0.0732544
54 1 0.944887 0.79832 0.0732544
55 1 0.0551128 0.201679 0.573255
56 1 0.555113 0.201679 0.573255
57 1 0.194887 0.701679 0.0732547
58 1 0.694887 0.701679 0.0732548
59 1 0.305113 0.298321 0.573255
60 1 0.805113 0.298321 0.573255
61 1 0.444887 0.298321 0.0732547
62 1 0.944887 0.298321 0.0732548
63 1 0.0551129 0.701679 0.573255
64 1 0.555113 0.701679 0.573255
65 1 0.148428 0.220833 0.0782982
66 1 0.648428 0.220833 0.0782982
67 1 0.351572 0.779167 0.578298
68 1 0.851572 0.779167 0.578298
69 1 0.398428 0.779167 0.0782981
70 1 0.898428 0.779167 0.0782981
71 1 0.101572 0.220833 0.578298
72 1 0.601572 0.220833 0.578298
73 1 0.148429 0.720833 0.0782981
74 1 0.648429 0.720833 0.078298
75 1 0.351571 0.279167 0.578298
76 1 0.851571 0.279167 0.578298
77 1 0.398429 0.279167 0.078298
78 1 0.898429 0.279167 0.078298
79 1 0.101571 0.720833 0.578298
80 1 0.601571 0.720833 0.578298
81 1 0.120429 0.155605 0.118893
82 1 0.620429 0.155605 0.118893
83 1 0.379571 0.844395 0.618893
84 1 0.879571 0.844395 0.618893
85 1 0.370429 0.844395 0.118893
86 1 0.870429 0.844395 0.118893
87 1 0.129571 0.155605 0.618893
88 1 0.629571 0.155605 0.618893
89 1 0.120427 0.655606 0.118893
90 1 0.620427 0.655606 0.118893
91 1 0.379573 0.344395 0.618893
92 1 0.879573 0.344394 0.618893
93 1 0.370428 0.344394 0.118893
94 1 0.870427 0.344394 0.118893
95 1 0.129573 0.655605 0.618893
96 1 0.629573 0.655606 0.618893
97 1 0.116114 0.99918 0.205622
98 1 0.616114 0.99918 0.205622
99 1 0.383886 0.000819625 0.705622
100 1 0.883886 0.000819744 0.705622
101 1 0.366114 0.000819874 0.205622
102 1 0.866114 0.000819866 0.205622
103 1 0.133886 0.999181 0.705622
104 1 0.633886 0.999181 0.705622
105 1 0.116114 0.49918 0.205622
106 1 0.616114 0.49918 0.205622
107 1 0.383886 0.50082 0.705622
108 1 0.883886 0.50082 0.705622
109 1 0.366114 0.50082 0.205622
110 1 0.866114 0.50082 0.205622
111 1 0.133886 0.49918 0.705622
112 1 0.633886 0.49918 0.705622
113 1 0.264181 0.183077 0.844732
114 1 0.764181 0.183077 0.844732
115 1 0.235819 0.816923 0.344732
116 1 0.735819 0.816922 0.344732
117 1 0.0141809 0.816922 0.844732
118 1 0.514181 0.816922 0.844732
119 1 0.485819 0.183077 0.344732
120 1 0.985819 0.183077 0.344732
121 1 0.264181 0.683077 0.844732
122 1 0.764181 0.683078 0.844732
123 1 0.235819 0.316922 0.344732
124 1 0.735819 0.316922 0.344732
125 1 0.0141809 0.316922 0.844732
126 1 0.514181 0.316922 0.844732
127 1 0.485819 0.683077 0.344732
128 1 0.985819 0.683077 0.344732
129 1 0.310917 0.202847 0.848008
130 1 0.810918 0.202847 0.848008
131 1 0.189082 0.797153 0.348008
132 1 0.689082 0.797153 0.348008
133 1 0.0609176 0.797153 0.848008
134 1 0.560918 0.797153 0.848008
135 1 0.439082 0.202847 0.348008
136 1 0.939082 0.202847 0.348008
137 1 0.310918 0.702847 0.848008
138 1 0.810918 0.702847 0.848008
139 1 0.189082 0.297153 0.348008
140 1 0.689082 0.297153 0.348008
141 1 0.0609176 0.297153 0.848008
142 1 0.560918 0.297153 0.848008
143 1 0.439082 0.702847 0.348008
144 1 0.939082 0.702847 0.348008
145 1 0.336048 0.132237 0.889636
146 1 0.836048 0.132237 0.889636
147 1 0.163952 0.867763 0.389636
148 1 0.663952 0.867763 0.389636
149 1 0.0860479 0.867763 0.889636
150 1 0.586048 0.867763 0.889636
151 1 0.413952 0.132237 0.389636
152 1 0.913952 0.132237 0.389636
153 1 0.336048 0.632237 0.889636
154 1 0.836048 0.632237 0.889636
155 1 0.163952 0.367763 0.389636
156 1 0.663952 0.367763 0.389636
157 1 0.0860479 0.367763 0.889636
158 1 0.586048 0.367763 0.889636
159 1 0.413952 0.632237 0.389636
160 1 0.913952 0.632237 0.389636
161 1 0.316834 0.043013 0.924734
162 1 0.816835 0.0430129 0.924734
163 1 0.183165 0.956987 0.424734
164 1 0.683165 0.956987 0.424734
165 1 0.0668345 0.956987 0.924734
166 1 0.566835 0.956987 0.924734
167 1 0.433166 0.043013 0.424734
168 1 0.933166 0.0430129 0.424734
169 1 0.316834 0.543013 0.924734
170 1 0.816835 0.543013 0.924734
171 1 0.183165 0.456987 0.424734
172 1 0.683165 0.456987 0.424734
173 1 0.0668346 0.456987 0.924734
174 1 0.566835 0.456987 0.924734
175 1 0.433165 0.543013 0.424734
176 1 0.933165 0.543013 0.424734
177 1 0.27042 0.0244303 0.918716
178 1 0.77042 0.0244301 0.918716
179 1 0.22958 0.97557 0.418716
180 1 0.72958 0.97557 0.418716
181 1 0.0204199 0.97557 0.918716
182 1 0.52042 0.97557 0.918716
183 1 0.47958 0.0244302 0.418716
184 1 0.97958 0.0244302 0.418716
185 1 0.27042 0.52443 0.918716
186 1 0.77042 0.52443 0.918716
187 1 0.22958 0.47557 0.418716
188 1 0.72958 0.47557 0.418716
189 1 0.0204199 0.47557 0.918716
190 1 0.52042 0.47557 0.918716
191 1 0.47958 0.52443 0.418716
192 1 0.97958 0.52443 0.418716
193 1 0.243155 0.0963556 0.880859
194 1 0.743155 0.0963557 0.880859
195 1 0.256845 0.903644 0.380859
196 1 0.756845 0.903644 0.380859
197 1 0.493155 0.903644 0.880859
198 1 0.993155 0.903644 0.880859
199 1 0.00684533 0.0963556 0.380859
200 1 0.506845 0.0963557 0.380859
201 1 0.243155 0.596356 0.880859
202 1 0.743155 0.596356 0.880859
203 1 0.256845 0.403644 0.380859
204 1 0.756845 0.403644 0.380859
205 1 0.493155 0.403644 0.880859
206 1 0.993155 0.403644 0.880859
207 1 0.00684528 0.596356 0.380859
208 1 0.506845 0.596356 0.380859
209 1 0.231547 0.250139 0.799514
210 1 0.731547 0.25014 0.799514
211 1 0.268453 0.74986 0.299514
212 1 0.768453 0.74986 0.299514
213 1 0.481547 0.74986 0.799514
214 1 0.981547 0.74986 0.799514
215 1 0.018453 0.25014 0.299514
216 1 0.518453 0.25014 0.299514
217 1 0.231547 0.75014 0.799514
218 1 0.731547 0.75014 0.799514
219 1 0.268453 0.24986 0.299514
220 1 0.768453 0.24986 0.299514
221 1 0.481547 0.24986 0.799514
222 1 0.981547 0.24986 0.799514
223 1 0.018453 0.75014 0.299514
224 1 0.518453 0.75014 0.299514
225 2 0.211875 0.956088 0.194022
226 2 0.711875 0.956087 0.194022
227 2 0.288125 0.0439125 0.694022
228 2 0.788125 0.0439125 0.694022
229 2 0.461875 0.0439127 0.194022
230 2 0.961875 0.0439126 0.194022
231 2 0.0381252 0.956088 0.694022
232 2 0.538125 0.956088 0.694022
233 2 0.211875 0.456088 0.194021
234 2 0.711875 0.456088 0.194021
235 2 0.288125 0.543912 0.694021
236 2 0.788125 0.543912 0.694021
237 2 0.461875 0.543912 0.194021
238 2 0.961875 0.543912 0.194021
239 2 0.0381251 0.456088 0.694021
240 2 0.538125 0.456088 0.694021
241 2 0.223481 0.273187 0.0265132
242 2 0.723481 0.273187 0.0265132
243 2 0.276519 0.726813 0.526513
244 2 0.776519 0.726813 0.526513
245 2 0.473481 0.726813 0.0265131
246 2 0.973481 0.726813 0.0265132
247 2 0.0265193 0.273187 0.526513
248 2 0.526519 0.273187 0.526513
249 2 0.223481 0.773187 0.0265136
250 2 0.723481 0.773187 0.0265136
251 2 0.276519 0.226813 0.526514
252 2 0.776519 0.226813 0.526514
253 2 0.473481 0.226813 0.0265136
254 2 0.973481 0.226813 0.0265136
255 2 0.0265193 0.773187 0.526514
256 2 0.526519 0.773187 0.526514
257 2 0.0697043 0.176209 0.121764
258 2 0.569704 0.176209 0.121764
259 2 0.430296 0.823791 0.621764
260 2 0.930296 0.823791 0.621764
261 2 0.319704 0.823791 0.121764
262 2 0.819704 0.823791 0.121764
263 2 0.180296 0.176209 0.621764
264 2 0.680296 0.176209 0.621764
265 2 0.0697032 0.676209 0.121764
266 2 0.569703 0.676209 0.121764
267 2 0.430297 0.323791 0.621764
268 2 0.930297 0.323791 0.621764
269 2 0.319703 0.323791 0.121764
270 2 0.819703 0.323791 0.121764
271 2 0.180297 0.676209 0.621764
272 2 0.680297 0.676209 0.621764
273 2 0.335404 0.290982 0.806647
274 2 0.835404 0.290982 0.806647
275 2 0.164596 0.709018 0.306647
276 2 0.664596 0.709018 0.306647
277 2 0.0854037 0.709018 0.806647
278 2 0.585404 0.709018 0.806647
279 2 0.414596 0.290982 0.306647
280 2 0.914596 0.290982 0.306647
281 2 0.335404 0.790982 0.806647
282 2 0.835404 0.790982 0.806647
283 2 0.164596 0.209018 0.306647
284 2 0.664596 0.209018 0.306647
285 2 0.0854037 0.209018 0.806647
286 2 0.585404 0.209018 0.806647
287 2 0.414596 0.790982 0.306647
288 2 0.914596 0.790982 0.306647
289 2 0.345705 0.967862 0.96932
290 2 0.845706 0.967862 0.96932
291 2 0.154294 0.0321384 0.46932
292 2 0.654294 0.0321385 0.46932
293 2 0.0957056 0.0321384 0.96932
294 2 0.595706 0.0321385 0.96932
295 2 0.404294 0.967862 0.46932
296 2 0.904294 0.967862 0.46932
297 2 0.345706 0.467862 0.96932
298 2 0.845706 0.467861 0.96932
299 2 0.154294 0.532138 0.46932
300 2 0.654294 0.532139 0.46932
301 2 0.0957056 0.532138 0.96932
302 2 0.595706 0.532139 0.96932
303 2 0.404294 0.467862 0.46932
304 2 0.904294 0.467862 0.46932
305 2 0.192301 0.0769059 0.879962
306 2 0.6923 0.0769057 0.879962
307 2 0.3077 0.923094 0.379962
308 2 0.8077 0.923094 0.379962
309 2 0.4423 0.923094 0.879962
310 2 0.9423 0.923094 0.879962
311 2 0.0576994 0.0769058 0.379962
312 2 0.557699 0.0769058 0.379962
313 2 0.192301 0.576906 0.879962
314 2 0.6923 0.576906 0.879962
315 2 0.3077 0.423094 0.379962
316 2 0.8077 0.423094 0.379962
317 2 0.4423 0.423094 0.879962
318 2 0.9423 0.423094 0.879962
319 2 0.0576995 0.576906 0.379962
320 2 0.5577 0.576906 0.379962
321 3 0.193722 0.861525 0.195147
322 3 0.693722 0.861525 0.195147
323 3 0.306278 0.138475 0.695147
324 3 0.806278 0.138475 0.695147
325 3 0.443722 0.138475 0.195147
326 3 0.943722 0.138475 0.195147
327 3 0.0562777 0.861525 0.695147
328 3 0.556278 0.861525 0.695147
329 3 0.193722 0.361525 0.195147
330 3 0.693722 0.361525 0.195147
331 3 0.306278 0.638475 0.695147
332 3 0.806278 0.638475 0.695147
333 3 0.443722 0.638475 0.195147
334 3 0.943722 0.638475 0.195147
335 3 0.0562777 0.361525 0.695147
336 3 0.556278 0.361525 0.695147
337 3 0.248085 0.983518 0.222815
338 3 0.748085 0.983518 0.222815
339 3 0.251915 0.0164821 0.722815
340 3 0.751915 0.016482 0.722815
341 3 0.498085 0.0164821 0.222815
342 3 0.998085 0.0164821 0.222815
343 3 0.00191509 0.983518 0.722815
344 3 0.501915 0.983518 0.722815
345 3 0.248085 0.483519 0.222815
346 3 0.748085 0.483518 0.222815
347 3 0.251915 0.516482 0.722815
348 3 0.751915 0.516482 0.722815
349 3 0.498085 0.516482 0.222815
350 3 0.998085 0.516482 0.222815
351 3 0.0019147 0.483518 0.722815
352 3 0.501915 0.483518 0.722815
353 3 0.259782 0.231354 0.0050377
354 3 0.759782 0.231354 0.00503766
355 3 0.240218 0.768646 0.505038
356 3 0.740218 0.768646 0.505038
357 3 0.00978159 0.768646 0.00503772
358 3 0.509782 0.768646 0.00503771
359 3 0.490218 0.231354 0.505038
360 3 0.990218 0.231354 0.505038
361 3 0.259782 0.731353 0.0050377
362 3 0.759782 0.731353 0.00503766
363 3 0.240218 0.268647 0.505038
364 3 0.740218 0.268647 0.505038
365 3 0.00978215 0.268647 0.00503765
366 3 0.509782 0.268647 0.00503765
367 3 0.490218 0.731353 0.505038
368 3 0.990218 0.731353 0.505038
369 3 0.208772 0.368627 0.0116258
370 3 0.708772 0.368627 0.0116258
371 3 0.291228 0.631373 0.511626
372 3 0.791228 0.631373 0.511626
373 3 0.458772 0.631373 0.0116259
374 3 0.958772 0.631373 0.0116258
375 3 0.0412282 0.368627 0.511626
376 3 0.541228 0.368627 0.511626
377 3 0.208772 0.868628 0.0116257
378 3 0.708772 0.868628 0.0116257
379 3 0.291228 0.131372 0.511626
380 3 0.791228 0.131372 0.511626
381 3 0.458772 0.131372 0.0116257
382 3 0.958772 0.131372 0.0116257
383 3 0.0412282 0.868628 0.511626
384 3 0.541228 0.868628 0.511626
385 3 0.0573208 0.273889 0.135682
386 3 0.557321 0.27389 0.135683
387 3 0.442679 0.72611 0.635682
388 3 0.942679 0.72611 0.635682
389 3 0.307321 0.726109 0.135683
390 3 0.807321 0.72611 0.135683
391 3 0.192679 0.273889 0.635682
392 3 0.692679 0.27389 0.635682
393 3 0.0573211 0.773884 0.135682
394 3 0.557321 0.773884 0.135682
395 3 0.442679 0.226116 0.635682
396 3 0.942679 0.226116 0.635682
397 3 0.307321 0.226115 0.135682
398 3 0.807321 0.226115 0.135682
399 3 0.192679 0.773883 0.635682
400 3 0.692679 0.773884 0.635682
401 3 0.0445303 0.0934533 0.111494
402 3 0.54453 0.0934526 0.111494
403 3 0.45547 0.906547 0.611494
404 3 0.95547 0.906547 0.611494
405 3 0.29453 0.906548 0.111494
406 3 0.79453 0.906547 0.111494
407 3 0.20547 0.0934534 0.611494
408 3 0.70547 0.0934529 0.611494
409 3 0.0445315 0.593459 0.111495
410 3 0.544531 0.593458 0.111495
411 3 0.455469 0.406542 0.611495
412 3 0.955469 0.406542 0.611495
413 3 0.294531 0.406542 0.111495
414 3 0.794531 0.406542 0.111495
415 3 0.205468 0.593459 0.611495
416 3 0.705469 0.593458 0.611495
417 3 0.317262 0.385417 0.803649
418 3 0.817262 0.385418 0.803649
419 3 0.182738 0.614582 0.303649
420 3 0.682738 0.614582 0.303649
421 3 0.0672621 0.614582 0.803649
422 3 0.567262 0.614582 0.803649
423 3 0.432738 0.385418 0.303649
424 3 0.932738 0.385418 0.303649
425 3 0.317262 0.885418 0.803649
426 3 0.817262 0.885418 0.803649
427 3 0.182738 0.114582 0.303649
428 3 0.682738 0.114582 0.303649
429 3 0.0672621 0.114582 0.803649
430 3 0.567262 0.114582 0.803649
431 3 0.432738 0.885418 0.303649
432 3 0.932738 0.885418 0.303649
433 3 0.372354 0.263737 0.779862
434 3 0.872354 0.263737 0.779862
435 3 0.127646 0.736263 0.279862
436 3 0.627646 0.736263 0.279862
437 3 0.122354 0.736263 0.779862
438 3 0.622354 0.736263 0.779862
439 3 0.377646 0.263737 0.279862
440 3 0.877646 0.263737 0.279862
441 3 0.372354 0.763737 0.779862
442 3 0.872354 0.763737 0.779862
443 3 0.127646 0.236263 0.279862
444 3 0.627646 0.236263 0.279862
445 3 0.122354 0.236263 0.779862
446 3 0.622354 0.236263 0.779862
447 3 0.377646 0.763737 0.279862
448 3 0.877646 0.763737 0.279862
449 3 0.378793 0.0128283 0.998396
450 3 0.878793 0.0128284 0.998396
451 3 0.121207 0.987172 0.498396
452 3 0.621207 0.987172 0.498396
453 3 0.128793 0.987172 0.998396
454 3 0.628793 0.987172 0.998396
455 3 0.371207 0.0128284 0.498396
456 3 0.871207 0.0128283 0.498396
457 3 0.378793 0.512828 0.998396
458 3 0.878793 0.512828 0.998396
459 3 0.121207 0.487172 0.498396
460 3 0.621207 0.487172 0.498396
461 3 0.128793 0.487172 0.998396
462 3 0.628793 0.487172 0.998396
463 3 0.371207 0.512828 0.498396
464 3 0.871207 0.512828 0.498396
465 3 0.334095 0.867321 0.973677
466 3 0.834095 0.867321 0.973677
467 3 0.165905 0.132679 0.473677
468 3 0.665905 0.132679 0.473677
469 3 0.0840954 0.132679 0.973677
470 3 0.584095 0.132679 0.973677
471 3 0.415905 0.867321 0.473677
472 3 0.915905 0.867321 0.473677
473 3 0.334096 0.367321 0.973677
474 3 0.834095 0.367321 0.973677
475 3 0.165905 0.632679 0.473677
476 3 0.665905 0.632679 0.473677
477 3 0.0840955 0.632679 0.973677
478 3 0.584095 0.632679 0.973677
479 3 0.415905 0.367321 0.473677
480 3 0.915904 0.367321 0.473676
481 3 0.179042 0.983724 0.858595
482 3 0.679042 0.983724 0.858595
483 3 0.320958 0.0162759 0.358595
484 3 0.820958 0.0162758 0.358595
485 3 0.429042 0.0162758 0.858595
486 3 0.929042 0.0162759 0.858595
487 3 0.0709583 0.983724 0.358595
488 3 0.570958 0.983724 0.358595
489 3 0.179042 0.483724 0.858595
490 3 0.679042 0.483724 0.858595
491 3 0.320958 0.516276 0.358595
492 3 0.820958 0.516276 0.358595
493 3 0.429042 0.516276 0.858595
494 3 0.929042 0.516276 0.858595
495 3 0.0709584 0.483724 0.358595
496 3 0.570958 0.483724 0.358595
497 3 0.168429 0.156936 0.900096
498 3 0.668429 0.156936 0.900095
499 3 0.331571 0.843064 0.400095
500 3 0.831571 0.843065 0.400095
501 3 0.418429 0.843065 0.900095
502 3 0.918429 0.843064 0.900095
503 3 0.0815708 0.156936 0.400095
504 3 0.581571 0.156936 0.400095
505 3 0.168429 0.656936 0.900096
506 3 0.668429 0.656935 0.900095
507 3 0.331571 0.343064 0.400095
508 3 0.831571 0.343065 0.400095
509 3 0.418429 0.343065 0.900095
510 3 0.918429 0.343064 0.900095
511 3 0.0815708 0.656936 0.400095
512 3 0.581571 0.656936 0.400095
513 4 0.137213 0.970141 0.246847
514 4 0.637213 0.970141 0.246847
515 4 0.362787 0.0298595 0.746847
516 4 0.862787 0.0298595 0.746847
517 4 0.387213 0.0298595 0.246847
518 4 0.887213 0.0298595 0.246847
519 4 0.112787 0.970141 0.746847
520 4 0.612787 0.970141 0.746847
521 4 0.137213 0.47014 0.246847
522 4 0.637213 0.47014 0.246847
523 4 0.362787 0.52986 0.746847
524 4 0.862787 0.52986 0.746847
525 4 0.387213 0.52986 0.246847
526 4 0.887213 0.52986 0.246847
527 4 0.112787 0.47014 0.746847
528 4 0.612787 0.47014 0.746847
529 4 0.103165 0.923603 0.182351
530 4 0.603165 0.923603 0.182351
531 4 0.396835 0.0763968 0.682351
532 4 0.896835 0.0763969 0.682351
533 4 0.353165 0.0763969 0.182351
534 4 0.853165 0.076397 0.182351
535 4 0.146835 0.923603 0.682351
536 4 0.646835 0.923603 0.682351
537 4 0.103165 0.423603 0.182351
538 4 0.603165 0.423603 0.182351
539 4 0.396835 0.576397 0.682351
540 4 0.896835 0.576397 0.682351
541 4 0.353165 0.576397 0.182351
542 4 0.853165 0.576397 0.182351
543 4 0.146835 0.423603 0.682351
544 4 0.646835 0.423603 0.682351
545 4 0.088379 0.04437 0.228648
546 4 0.588379 0.0443701 0.228648
547 4 0.411621 0.95563 0.728648
548 4 0.911621 0.95563 0.728648
549 4 0.338379 0.95563 0.228648
550 4 0.838379 0.95563 0.228648
551 4 0.161621 0.0443701 0.728648
552 4 0.661621 0.0443701 0.728648
553 4 0.0883788 0.54437 0.228648
554 4 0.588379 0.54437 0.228648
555 4 0.411621 0.45563 0.728648
556 4 0.911621 0.45563 0.728648
557 4 0.338379 0.45563 0.228648
558 4 0.838379 0.45563 0.228648
559 4 0.161621 0.54437 0.728648
560 4 0.661621 0.54437 0.728648
561 4 0.250397 0.100379 0.107537
562 4 0.750397 0.100379 0.107538
563 4 0.249603 0.899621 0.607538
564 4 0.749603 0.899621 0.607537
565 4 0.500397 0.899621 0.107537
566 4 0.000397205 0.899621 0.107537
567 4 0.999603 0.100379 0.607538
568 4 0.499603 0.100379 0.607538
569 4 0.250397 0.600379 0.107537
570 4 0.750398 0.600379 0.107537
571 4 0.249603 0.399621 0.607537
572 4 0.749602 0.399621 0.607537
573 4 0.500398 0.399621 0.107537
574 4 0.000397557 0.399621 0.107537
575 4 0.999603 0.600379 0.607537
576 4 0.499602 0.600379 0.607537
577 4 0.133554 0.288682 0.0496799
578 4 0.633554 0.288682 0.0496799
579 4 0.366446 0.711318 0.54968
580 4 0.866446 0.711318 0.54968
581 4 0.383554 0.711318 0.0496799
582 4 0.883554 0.711318 0.0496799
583 4 0.116446 0.288682 0.54968
584 4 0.616446 0.288682 0.54968
585 4 0.133554 0.788682 0.0496795
586 4 0.633554 0.788682 0.0496795
587 4 0.366446 0.211318 0.54968
588 4 0.866446 0.211318 0.54968
589 4 0.383554 0.211318 0.0496796
590 4 0.883554 0.211318 0.0496795
591 4 0.116446 0.788682 0.54968
592 4 0.616446 0.788682 0.54968
593 4 0.247913 0.283381 0.754724
594 4 0.747913 0.283381 0.754724
595 4 0.252087 0.716619 0.254724
596 4 0.752087 0.716619 0.254724
597 4 0.497913 0.716619 0.754724
598 4 0.997913 0.716619 0.754724
599 4 0.00208724 0.283381 0.254724
600 4 0.502087 0.283381 0.254724
601 4 0.247913 0.783381 0.754724
602 4 0.747913 0.783381 0.754724
603 4 0.252087 0.216619 0.254724
604 4 0.752087 0.216619 0.254724
605 4 0.497913 0.216619 0.754724
606 4 0.997913 0.216619 0.754724
607 4 0.00208725 0.783381 0.254724
608 4 0.502087 0.783381 0.254724
609 4 0.203469 0.199319 0.782019
610 4 0.703469 0.199319 0.782019
611 4 0.296531 0.800681 0.282019
612 4 0.796532 0.800681 0.282019
613 4 0.453468 0.800681 0.782019
614 4 0.953469 0.800681 0.782019
615 4 0.0465315 0.199319 0.282019
616 4 0.546531 0.199319 0.282019
617 4 0.203469 0.69932 0.782019
618 4 0.703469 0.699319 0.782019
619 4 0.296531 0.300681 0.282019
620 4 0.796531 0.300681 0.282019
621 4 0.453469 0.300681 0.782019
622 4 0.953469 0.300681 0.782019
623 4 0.0465315 0.699319 0.282019
624 4 0.546531 0.699319 0.282019
625 4 0.216009 0.319732 0.825978
626 4 0.716009 0.319732 0.825978
627 4 0.283991 0.680268 0.325978
628 4 0.783991 0.680268 0.325978
629 4 0.466009 0.680268 0.825978
630 4 0.966009 0.680268 0.825978
631 4 0.0339915 0.319732 0.325978
632 4 0.533991 0.319732 0.325978
633 4 0.216009 0.819732 0.825978
634 4 0.716009 0.819732 0.825978
635 4 0.283991 0.180268 0.325978
636 4 0.783991 0.180268 0.325978
637 4 0.466009 0.180268 0.825978
638 4 0.966009 0.180268 0.825978
639 4 0.0339914 0.819732 0.325978
640 4 0.533991 0.819732 0.325978
641 4 0.372305 0.145419 0.893691
642 4 0.872305 0.145419 0.893691
643 4 0.127695 0.854581 0.393691
644 4 0.627694 0.854581 0.393691
645 4 0.122305 0.854581 0.893691
646 4 0.622306 0.854581 0.893691
647 4 0.377695 0.145419 0.393691
648 4 0.877695 0.145419 0.393691
649 4 0.372305 0.645419 0.893691
650 4 0.872306 0.645419 0.893691
651 4 0.127695 0.354581 0.393691
652 4 0.627694 0.354581 0.393691
653 4 0.122305 0.354581 0.893691
654 4 0.622306 0.354581 0.893691
655 4 0.377695 0.645419 0.393691
656 4 0.877695 0.645419 0.393691
657 4 0.254851 0.954822 0.945311
658 4 0.754851 0.954822 0.945311
659 4 0.245149 0.0451781 0.445311
660 4 0.745149 0.0451784 0.445311
661 4 0.0048507 0.0451781 0.945311
662 4 0.504851 0.0451784 0.945311
663 4 0.495149 0.954822 0.445311
664 4 0.995149 0.954822 0.445311
665 4 0.254851 0.454822 0.945311
666 4 0.754851 0.454822 0.945311
667 4 0.245149 0.545178 0.445311
668 4 0.745149 0.545178 0.445311
669 4 0.0048507 0.545178 0.945311
670 4 0.504851 0.545178 0.945311
671 4 0.495149 0.454822 0.445311
672 4 0.995149 0.454822 0.445311
ITEM: TIMESTEP
1000
ITEM: NUMBER OF ATOMS
672
ITEM: BOX BOUNDS xy xz yz pp pp pp
-1.4802602507397999e-01 3.0410314446686577e+01 8.6655582011726170e-02
5.6829382701813724e-01 1.1638164007537144e+01 1.9363248860086410e-01
-1.0134974789082722e+00 2.1030497677308283e+01 5.2457552255303873e-02
ITEM: ATOMS id type xs ys zs
1 1 0.162247 0.0990363 0.168391
2 1 0.657522 0.0724185 0.152649
3 1 0.349902 0.922223 0.654092
4 1 0.838139 0.930748 0.658254
5 1 0.407776 0.904512 0.151851
6 1 0.901495 0.908428 0.158897
7 1 0.101617 0.0883946 0.66312
8 1 0.584686 0.0775029 0.650227
9 1 0.159654 0.604331 0.157655
10 1 0.6607 0.577732 0.149204
11 1 0.34985 0.405522 0.661323
12 1 0.842413 0.427063 0.655248
13 1 0.406973 0.410273 0.165223
14 1 0.902808 0.427229 0.169801
15 1 0.100511 0.603834 0.664596
16 1 0.594913 0.586451 0.65697
17 1 0.208052 0.0767764 0.158904
18 1 0.705193 0.0562926 0.147336
19 1 0.302835 0.927491 0.654313
20 1 0.791231 0.935583 0.650876
21 1 0.45385 0.908369 0.14011
22 1 0.947114 0.928061 0.152566
23 1 0.0558919 0.0586722 0.658283
24 1 0.538403 0.053759 0.644621
25 1 0.205132 0.579748 0.146848
26 1 0.706931 0.564485 0.14245
27 1 0.30403 0.421172 0.650545
28 1 0.796502 0.428352 0.649235
29 1 0.452495 0.431356 0.153409
30 1 0.949104 0.447832 0.165141
31 1 0.054915 0.590891 0.65562
32 1 0.549874 0.554121 0.653395
33 1 0.229302 0.137613 0.110622
34 1 0.72627 0.128725 0.104257
35 1 0.280589 0.856526 0.61077
36 1 0.771906 0.857267 0.607579
37 1 0.470982 0.83747 0.091872
38 1 0.96861 0.858006 0.105276
39 1 0.0321742 0.118428 0.609658
40 1 0.513269 0.117095 0.599047
41 1 0.222829 0.652812 0.0990407
42 1 0.727802 0.638774 0.0970007
43 1 0.282459 0.351915 0.604301
44 1 0.776494 0.343145 0.610218
45 1 0.470836 0.37318 0.102829
46 1 0.971007 0.374488 0.123107
47 1 0.0318344 0.660001 0.61074
48 1 0.524234 0.604704 0.607096
49 1 0.206479 0.224414 0.0731653
50 1 0.704499 0.219622 0.0701402
51 1 0.303339 0.7792 0.567853
52 1 0.797662 0.771656 0.573995
53 1 0.446457 0.75112 0.0586888
54 1 0.9453 0.771418 0.0684741
55 1 0.0499078 0.209669 0.572567
56 1 0.537106 0.200546 0.562212
57 1 0.197331 0.742946 0.0682372
58 1 0.704361 0.722905 0.0609048
59 1 0.305702 0.27129 0.566727
60 1 0.802973 0.261544 0.574074
61 1 0.448618 0.285268 0.0658269
62 1 0.949495 0.295078 0.0801806
63 1 0.05437 0.747146 0.576054
64 1 0.543568 0.688505 0.566272
65 1 0.161814 0.245838 0.0903288
66 1 0.65803 0.224331 0.0766794
67 1 0.349292 0.767146 0.573658
68 1 0.843125 0.765974 0.588022
69 1 0.400699 0.75598 0.0708227
70 1 0.898799 0.761168 0.0736187
71 1 0.0953382 0.238728 0.580069
72 1 0.584137 0.205107 0.564055
73 1 0.152999 0.763128 0.0871275
74 1 0.657698 0.725839 0.0680266
75 1 0.349494 0.249766 0.584994
76 1 0.848598 0.266256 0.585408
77 1 0.404371 0.257339 0.0839947
78 1 0.90458 0.266669 0.0924248
79 1 0.0989721 0.767155 0.592577
80 1 0.589869 0.705389 0.567643
81 1 0.137487 0.186854 0.13677
82 1 0.632486 0.153647 0.118876
83 1 0.374056 0.840997 0.614439
84 1 0.864643 0.836333 0.632638
85 1 0.380221 0.827197 0.117006
86 1 0.876405 0.822873 0.12139
87 1 0.119857 0.183754 0.626747
88 1 0.609455 0.1495 0.609879
89 1 0.132284 0.694309 0.133265
90 1 0.635637 0.665468 0.115832
91 1 0.375112 0.316015 0.628851
92 1 0.869063 0.332474 0.630468
93 1 0.381672 0.328399 0.12909
94 1 0.880166 0.337856 0.134205
95 1 0.125291 0.689575 0.629958
96 1 0.617555 0.665567 0.615723
97 1 0.135588 0.0190157 0.213408
98 1 0.628903 0.00627972 0.199117
99 1 0.380045 0.00201586 0.693911
100 1 0.85927 0.00396889 0.711592
101 1 0.385537 0.981317 0.203467
102 1 0.873911 0.970402 0.209052
103 1 0.134142 0.0163001 0.702399
104 1 0.612828 0.0124904 0.698634
105 1 0.136347 0.530917 0.210208
106 1 0.634192 0.507042 0.19837
107 1 0.375986 0.483176 0.704919
108 1 0.860338 0.512113 0.704813
109 1 0.381612 0.478347 0.214955
110 1 0.874433 0.499835 0.216595
111 1 0.126824 0.529438 0.713558
112 1 0.624106 0.508881 0.700631
113 1 0.277634 0.174038 0.85205
114 1 0.770178 0.196971 0.851718
115 1 0.226688 0.84971 0.347746
116 1 0.726365 0.853072 0.341278
117 1 0.0245877 0.829057 0.844785
118 1 0.525978 0.830957 0.843161
119 1 0.477256 0.135897 0.338334
120 1 0.976391 0.165411 0.351341
121 1 0.276498 0.662449 0.829265
122 1 0.765226 0.644502 0.838583
123 1 0.233468 0.349488 0.335244
124 1 0.725276 0.337303 0.338257
125 1 0.0320921 0.3493 0.845265
126 1 0.524256 0.304432 0.838835
127 1 0.47332 0.651763 0.339443
128 1 0.971975 0.665972 0.353413
129 1 0.324527 0.19367 0.855526
130 1 0.817317 0.216352 0.851407
131 1 0.180182 0.838172 0.35343
132 1 0.681873 0.829941 0.343166
133 1 0.0712495 0.834132 0.847515
134 1 0.57157 0.810882 0.852167
135 1 0.432017 0.170165 0.339812
136 1 0.93108 0.186721 0.361843
137 1 0.321664 0.686393 0.83869
138 1 0.810071 0.677467 0.845111
139 1 0.187961 0.324645 0.342306
140 1 0.67965 0.319715 0.343327
141 1 0.0789042 0.338592 0.850316
142 1 0.570904 0.279377 0.846165
143 1 0.426927 0.664435 0.342456
144 1 0.926377 0.699873 0.356731
145 1 0.346617 0.114017 0.89536
146 1 0.84147 0.147674 0.894389
147 1 0.158867 0.905986 0.400252
148 1 0.659515 0.901005 0.388466
149 1 0.0908661 0.90694 0.895792
150 1 0.595218 0.872901 0.898576
151 1 0.408686 0.103874 0.38539
152 1 0.91136 0.122883 0.410814
153 1 0.343052 0.618619 0.886992
154 1 0.832908 0.613539 0.8917
155 1 0.163404 0.405282 0.381241
156 1 0.656472 0.400306 0.381416
157 1 0.101171 0.411999 0.894622
158 1 0.592779 0.340788 0.893945
159 1 0.405879 0.601715 0.390764
160 1 0.906138 0.641892 0.406795
161 1 0.325442 0.0195151 0.927187
162 1 0.820223 0.0726474 0.938126
163 1 0.182608 0.994217 0.434457
164 1 0.678829 0.991348 0.425475
165 1 0.0635416 0.974431 0.935503
166 1 0.571415 0.951448 0.935757
167 1 0.426374 0.0141526 0.423222
168 1 0.933868 0.0357722 0.445263
169 1 0.319025 0.54038 0.924298
170 1 0.809988 0.530541 0.930895
171 1 0.18457 0.473357 0.428448
172 1 0.677357 0.493082 0.414122
173 1 0.0768841 0.487186 0.935045
174 1 0.57003 0.428507 0.934184
175 1 0.426859 0.517358 0.429311
176 1 0.92545 0.542241 0.439049
177 1 0.27952 0.000415674 0.916749
178 1 0.774418 0.060929 0.935019
179 1 0.226542 0.0198947 0.414296
180 1 0.723276 0.0234775 0.417134
181 1 0.0174208 0.979922 0.921177
182 1 0.525198 0.972513 0.926591
183 1 0.472187 0.98806 0.418929
184 1 0.979192 0.0154805 0.431275
185 1 0.274166 0.522637 0.91381
186 1 0.764173 0.505315 0.917595
187 1 0.230882 0.486935 0.418376
188 1 0.724091 0.503051 0.408596
189 1 0.0317133 0.502251 0.923068
190 1 0.52555 0.461726 0.916038
191 1 0.473047 0.500644 0.415696
192 1 0.969802 0.506616 0.425224
193 1 0.253787 0.0799242 0.882478
194 1 0.748237 0.111794 0.888532
195 1 0.25115 0.948427 0.372998
196 1 0.748118 0.950303 0.374088
197 1 0.501401 0.913578 0.880541
198 1 0.995322 0.904427 0.878332
199 1 0.000778984 0.0737217 0.382108
200 1 0.498012 0.0442674 0.373523
201 1 0.251448 0.58288 0.865772
202 1 0.739216 0.561345 0.871663
203 1 0.256601 0.434389 0.371324
204 1 0.749788 0.421832 0.372619
205 1 0.50371 0.403844 0.869406
206 1 0.00862247 0.439025 0.878915
207 1 0.994341 0.563182 0.377831
208 1 0.498447 0.561663 0.370288
209 1 0.254443 0.25562 0.804745
210 1 0.743452 0.251164 0.796947
211 1 0.248865 0.761624 0.30424
212 1 0.752587 0.77256 0.29451
213 1 0.496733 0.756107 0.800913
214 1 0.00540448 0.772635 0.786495
215 1 0.00227945 0.216549 0.294416
216 1 0.508798 0.196048 0.290037
217 1 0.252502 0.738009 0.778339
218 1 0.73857 0.700575 0.785252
219 1 0.263303 0.295531 0.283557
220 1 0.749972 0.260904 0.289159
221 1 0.49348 0.252253 0.78936
222 1 0.00880394 0.262831 0.800864
223 1 0.998808 0.738231 0.305565