LAMMPS data file via write_data, version 15 Apr 2020, timestep = 80000

672 atoms
4 atom types

-1.4422797489263672e-01 3.0126228325892875e+01 xlo xhi
6.8488279504317262e-01 1.1469117487256920e+01 ylo yhi
-1.1330015991675957e+00 2.1150001797567647e+01 zlo zhi
9.6669634209771815e-02 -4.1397432403220585e-01 1.7945050703107152e-01 xy xz yz

Masses

1 12.0107
2 14.0067
3 15.9994
4 1.00794

Atoms # full

1 1 1 -7.3174412617937543e-03 4.1191207156866687e+00 2.0506412516794414e+00 2.4742934627683559e+00 0 0 0
2 1 1 -5.8403433588327877e-03 1.9113648559587006e+01 2.1368379287753463e+00 2.1245968292323081e+00 0 0 0
3 1 1 -6.1362908232527116e-03 1.0440163382576108e+01 1.0155120594374166e+01 1.3639532028483734e+01 0 0 0
4 1 1 -7.3459618833155889e-03 2.5492339432114324e+01 1.0562215886979821e+01 1.3314650397599111e+01 0 0 0
5 1 1 -6.8601244376587898e-03 1.1623400355182328e+01 1.0403807679760478e+01 2.3412478697070163e+00 0 0 0
6 1 1 -1.1654598537623070e-02 2.6880957442194813e+01 1.0328808709722884e+01 2.6039820891394068e+00 0 0 0
7 1 1 -8.0148291012261709e-03 2.9850626117280674e+00 1.9438978184251561e+00 1.3590600837774476e+01 0 0 0
8 1 1 -7.3163188999049271e-03 1.7977396259180630e+01 1.9392963884388019e+00 1.3645942399550171e+01 0 0 0
9 1 1 -8.5682429462789547e-03 4.2876848577366298e+00 7.2054114654101884e+00 2.5122434020840649e+00 0 0 0
10 1 1 3.9706646714919476e-03 1.9336760218330781e+01 7.1388280050682589e+00 2.3346271420855578e+00 0 0 0
11 1 1 -1.0288939165430628e-02 1.0489700480219557e+01 4.8174593135544450e+00 1.3433531989336169e+01 0 0 0
12 1 1 -7.5554129848173085e-03 2.5450197684283886e+01 5.1120603926633823e+00 1.3464173135716136e+01 0 0 0
13 1 1 -6.4494705607775621e-03 1.1786234321864017e+01 4.7297126776748133e+00 2.4761022309233081e+00 0 0 0
14 1 1 -5.2164745541585268e-03 2.7033193903353876e+01 5.0174964437308462e+00 2.3130436851761518e+00 0 0 0
15 1 1 -4.4034290113770282e-03 2.7761340801639673e+00 7.3331829290234936e+00 1.3336243212626302e+01 0 0 0
16 1 1 -9.5356973268327407e-03 1.8131380604109275e+01 6.9915763590521793e+00 1.3375717809495587e+01 0 0 0
17 1 1 -7.5312179089220166e-02 5.4872559113819488e+00 1.6079639649555899e+00 2.4497899300308892e+00 0 0 0
18 1 1 -6.3683361833152777e-02 2.0505070882687434e+01 1.8524362971404962e+00 2.0843182856200611e+00 0 0 0
19 1 1 -6.1688923241410593e-02 9.0536348718467217e+00 1.0393812164049939e+01 1.3582939896704616e+01 0 0 0
20 1 1 -6.5669789252182878e-02 2.4109321558708903e+01 1.0843946072361064e+01 1.3177701902457381e+01 0 0 0
21 1 1 -6.0953609919012205e-02 1.3015714358318240e+01 1.0724957693617556e+01 2.2777457176006242e+00 0 0 0
22 1 1 -7.1501145923527826e-02 2.8215440620291410e+01 1.0826832393503777e+01 2.3782295953625869e+00 0 0 0
23 1 1 -6.3281780466579451e-02 1.5889911344360113e+00 1.6473544921754235e+00 1.3485667720043477e+01 0 0 0
24 1 1 -6.8207821261254437e-02 1.6631404207928835e+01 1.4985269928737686e+00 1.3473203251998935e+01 0 0 0
25 1 1 -6.7111405090095513e-02 5.6483237005927256e+00 6.8582454410522073e+00 2.3637228102767556e+00 0 0 0
26 1 1 -6.3516325255276687e-02 2.0759175512338789e+01 6.8586411734735053e+00 2.2714548084387278e+00 0 0 0
27 1 1 -6.9071110063009547e-02 9.1174333520004822e+00 5.1805460889798622e+00 1.3259857827266750e+01 0 0 0
28 1 1 -7.0567798205898924e-02 2.4053777007281109e+01 5.4608325059920366e+00 1.3330177454278989e+01 0 0 0
29 1 1 -6.1575232831287900e-02 1.3112242981041165e+01 5.1573148228275958e+00 2.2699760417563590e+00 0 0 0
30 1 1 -6.8018922545941149e-02 2.8434512109730466e+01 5.2172706882041355e+00 2.2131923584368955e+00 0 0 0
31 1 1 -6.1243000906011327e-02 1.3679400109076743e+00 7.0978663314225754e+00 1.3324727074698343e+01 0 0 0
32 1 1 -6.6925845006273035e-02 1.6788189932920368e+01 6.5971199566263481e+00 1.3244401551876150e+01 0 0 0
33 1 1 -9.5308810517058487e-02 6.2294104855455075e+00 2.2096544503343702e+00 1.4279175415446170e+00 0 0 0
34 1 1 -9.1092098618874212e-02 2.1215139073097649e+01 2.6106657961258217e+00 1.1543497660587048e+00 0 0 0
35 1 1 -8.6676441815390734e-02 8.3893771300869489e+00 9.6794762368004861e+00 1.2579118647219140e+01 0 0 0
36 1 1 -9.7534964877057720e-02 2.3398217784215980e+01 1.0115453577997140e+01 1.2221448107955979e+01 0 0 0
37 1 1 -8.4686899492844137e-02 1.3759066783390299e+01 1.0062557865726776e+01 1.2388899386418335e+00 0 0 0
38 1 1 -9.6395276223804074e-02 2.8951724508244936e+01 1.0224851100980054e+01 1.3284942059173441e+00 0 0 0
39 1 1 -9.6203058080975234e-02 8.7688127421950424e-01 2.3390160331190453e+00 1.2521106480814964e+01 0 0 0
40 1 1 -9.2850142541880606e-02 1.5929876449297190e+01 2.0453856990531643e+00 1.2354281068162528e+01 0 0 0
41 1 1 -9.7013066010021812e-02 6.3248471494438521e+00 7.6056890498097696e+00 1.3631987497807523e+00 0 0 0
42 1 1 -1.0532032809766366e-01 2.1486535341375482e+01 7.7348219859066152e+00 1.4327390197099272e+00 0 0 0
43 1 1 -9.5750493235132961e-02 8.3407268096073892e+00 4.4251923094155146e+00 1.2331213135979699e+01 0 0 0
44 1 1 -1.0229279568365228e-01 2.3360285802612051e+01 4.7589231712040769e+00 1.2295968760250846e+01 0 0 0
45 1 1 -8.6929987525422636e-02 1.3791734063248255e+01 4.5241001097617559e+00 1.1556742028453426e+00 0 0 0
46 1 1 -1.0237618264410864e-01 2.9144643850296948e+01 4.4065267178398866e+00 1.2611565468251973e+00 0 0 0
47 1 1 -9.3088256908057998e-02 6.8666772656433306e-01 7.8937052732853381e+00 1.2383378899048251e+01 0 0 0
48 1 1 -9.8161212375450044e-02 1.6044526280709100e+01 7.3624402812322138e+00 1.2317896282240486e+01 0 0 0
49 1 1 -5.0918300151319429e-02 5.7368316082015189e+00 3.2093011416602431e+00 5.2963565839265381e-01 0 0 0
50 1 1 -5.1648980219255972e-02 2.0578916054646093e+01 3.4318986753342995e+00 1.8831497285783216e-01 0 0 0
51 1 1 -5.0770893761930322e-02 8.9644227441739055e+00 8.6720967226331496e+00 1.1744474592155045e+01 0 0 0
52 1 1 -4.7118970440519103e-02 2.3939382881434131e+01 9.0730480198488426e+00 1.1481769513842419e+01 0 0 0
53 1 1 -4.3498282787178232e-02 1.3261182252305094e+01 8.9894444331262111e+00 5.3248690950520516e-01 0 0 0
54 1 1 -4.8736828012828956e-02 2.8342075665695372e+01 9.3370526301014003e+00 4.4536284792636782e-01 0 0 0
55 1 1 -5.4987311842724346e-02 1.4082123327729841e+00 3.3420482606995177e+00 1.1678591125246275e+01 0 0 0
56 1 1 -4.8992647055126272e-02 1.6435955639549281e+01 2.9908674789780898e+00 1.1496322988917846e+01 0 0 0
57 1 1 -5.0541154784825938e-02 5.7783135029791115e+00 8.6411846642862997e+00 6.0600312815165602e-01 0 0 0
58 1 1 -5.2692921606046689e-02 2.0869447117732523e+01 8.8211382271488397e+00 6.9000933262884812e-01 0 0 0
59 1 1 -4.6864747146336844e-02 8.9342296402186605e+00 3.4158740999036787e+00 1.1543387886710949e+01 0 0 0
60 1 1 -4.5927710683472400e-02 2.3975374811122631e+01 3.8480789071826660e+00 1.1435762792786678e+01 0 0 0
61 1 1 -5.3264343547939658e-02 1.3328365746506286e+01 3.4389937379425777e+00 3.9608585504473326e-01 0 0 0
62 1 1 -5.1601867344448271e-02 2.8560976815714827e+01 3.4539377977911760e+00 3.8908476954015092e-01 0 0 0
63 1 1 -5.8042888851133033e-02 1.2094265321779432e+00 8.9531516923311472e+00 1.1616699775231490e+01 0 0 0
64 1 1 -4.9710218862575997e-02 1.6445579759507108e+01 8.5362951486504812e+00 1.1639956690950246e+01 0 0 0
65 1 1 -9.9520287013499992e-02 4.4072718790908727e+00 3.6736272680694624e+00 7.7083654473192142e-01 0 0 0
66 1 1 -9.3549485307429542e-02 1.9174460672889808e+01 3.5900734147566853e+00 2.9057639187958140e-01 0 0 0
67 1 1 -8.8506832843027169e-02 1.0352371999634052e+01 8.4376754644037639e+00 1.1968000980572050e+01 0 0 0
68 1 1 -9.6072451135522416e-02 2.5344544554542448e+01 8.7423673320238198e+00 1.1672442541420137e+01 0 0 0
69 1 1 -8.9994856383712934e-02 1.1951149675686723e+01 8.5394551531763714e+00 8.6776075340391357e-01 0 0 0
70 1 1 -9.9313840155859312e-02 2.6973261118481503e+01 9.0137855605607129e+00 6.8504940551802518e-01 0 0 0
71 1 1 -9.0432339256733663e-02 2.7784385552541524e+00 3.6055003025970076e+00 1.1882367259677016e+01 0 0 0
72 1 1 -9.2714344050253167e-02 1.7805828214459964e+01 3.3618737255515301e+00 1.1725386782055589e+01 0 0 0
73 1 1 -1.0098137688322194e-01 4.4839549698993579e+00 9.0686227693622872e+00 9.2581491265364990e-01 0 0 0
74 1 1 -9.6904697281892091e-02 1.9553524191999070e+01 9.1153088812093710e+00 9.8636372878547185e-01 0 0 0
75 1 1 -9.7925411755532682e-02 1.0304480760285648e+01 3.0935556613865960e+00 1.1783947215009441e+01 0 0 0
76 1 1 -9.4822692554587640e-02 2.5342199119944670e+01 3.5312452348913124e+00 1.1708059590139730e+01 0 0 0
77 1 1 -9.2309776033117699e-02 1.1945712599556851e+01 3.1711715608385340e+00 6.9966170163880403e-01 0 0 0
78 1 1 -8.1216994720707675e-02 2.7166537603575623e+01 3.3176333161542133e+00 5.9940054368019013e-01 0 0 0
79 1 1 -8.5390818784827946e-02 2.6028363232182303e+00 9.1554686807499355e+00 1.1719415774239849e+01 0 0 0
80 1 1 -9.6183106481645880e-02 1.7780736697108765e+01 8.8900848206528291e+00 1.1922660539763422e+01 0 0 0
81 1 1 -6.8352117299673748e-02 3.5307991680071509e+00 3.0929848633101948e+00 1.6797383293930417e+00 0 0 0
82 1 1 -7.6812705148655611e-02 1.8397952751969800e+01 3.1207866930482813e+00 1.3808495914739112e+00 0 0 0
83 1 1 -6.4201266866346321e-02 1.1120653403436124e+01 9.1436562582013767e+00 1.2912913257085297e+01 0 0 0
84 1 1 -5.9096592523854505e-02 2.6097658106301704e+01 9.5255183086151796e+00 1.2555909744373849e+01 0 0 0
85 1 1 -5.8491160254752650e-02 1.1075534988751210e+01 9.2482856802247344e+00 1.7292596917150060e+00 0 0 0
86 1 1 -7.2858535424773996e-02 2.6218671919176039e+01 9.4216540591244122e+00 1.7995160719244074e+00 0 0 0
87 1 1 -6.9295007884779283e-02 3.6264494790812600e+00 2.9327315554566100e+00 1.2786309432712596e+01 0 0 0
88 1 1 -6.7255884689772880e-02 1.8630303422787097e+01 2.8702905361365061e+00 1.2780413902851089e+01 0 0 0
89 1 1 -6.6617536152312279e-02 3.6965406344994123e+00 8.2867628150060639e+00 1.8123070176405425e+00 0 0 0
90 1 1 -6.8102381881785343e-02 1.8709122393100195e+01 8.2890184662071000e+00 1.8358764643221765e+00 0 0 0
91 1 1 -7.0665309675291471e-02 1.1106351428469578e+01 3.7045170333519715e+00 1.2772339392797338e+01 0 0 0
92 1 1 -7.0216162210243876e-02 2.6104683999543898e+01 4.1084260815871456e+00 1.2752685093727582e+01 0 0 0
93 1 1 -6.2938562001504245e-02 1.1151738090483889e+01 3.7304438811489682e+00 1.7241563660696180e+00 0 0 0
94 1 1 -5.4803135859260624e-02 2.6406751713380700e+01 3.9803126086948235e+00 1.5651299662069360e+00 0 0 0
95 1 1 -6.3501752493949737e-02 3.4014957899960674e+00 8.4266293063317583e+00 1.2646939921748114e+01 0 0 0
96 1 1 -6.9896335307879642e-02 1.8663738308004664e+01 8.1514651216831471e+00 1.2758293597916989e+01 0 0 0
97 1 1 -3.1215984466855212e-01 3.2453922274679043e+00 1.3220946377448008e+00 3.5455714410093275e+00 0 1 0
98 1 1 -3.0634236000608583e-01 1.8333750819863432e+01 1.4508523878285184e+00 3.2787337246214108e+00 0 1 0
99 1 1 -3.0514089863677174e-01 1.1235533379690491e+01 1.0937411250259112e+01 1.4721755699307126e+01 0 -1 0
100 1 1 -3.1338637329198443e-01 2.6291093060154363e+01 1.1428196863173103e+01 1.4377519095268134e+01 0 -1 0
101 1 1 -3.1096324142071835e-01 1.0877413377725942e+01 1.1090168609883563e+01 3.5080295646372042e+00 0 -1 0
102 1 1 -3.1946388933582492e-01 2.6094003996624640e+01 1.1079004623644268e+01 3.7301189419871736e+00 0 -1 0
103 1 1 -3.1836762444784711e-01 3.9017077881352438e+00 1.1644669233252996e+00 1.4524016553640390e+01 0 1 0
104 1 1 -3.1096684137973346e-01 1.8787789688151740e+01 1.4163368535601741e+00 1.4830394020413992e+01 0 1 0
105 1 1 -3.0780158750261094e-01 3.3719177582384643e+00 6.3578254887055863e+00 3.4260840044876675e+00 0 0 0
106 1 1 -3.0673611429477837e-01 1.8521329622446650e+01 6.2453897170960682e+00 3.2967723856751654e+00 0 0 0
107 1 1 -3.1599252218297258e-01 1.1362319144338089e+01 5.5587213801416766e+00 1.4467671367663351e+01 0 0 0
108 1 1 -3.0814386149778783e-01 2.6318658057985711e+01 5.9356498360256804e+00 1.4441870592985859e+01 0 0 0
109 1 1 -3.1024219325536068e-01 1.1087930325006052e+01 5.4302204641393637e+00 3.6715598367760967e+00 0 0 0
110 1 1 -3.0790205985534214e-01 2.6110382254816479e+01 5.8762324147675944e+00 3.2080388584363684e+00 0 0 0
111 1 1 -3.1003165042397374e-01 3.6978132432958963e+00 6.4691214732487987e+00 1.4233241409676683e+01 0 0 0
112 1 1 -3.1897966527313665e-01 1.8962205332804064e+01 6.2793440410551984e+00 1.4502051323617511e+01 0 0 0
113 1 1 -4.1741060341753851e-03 8.1154567065500274e+00 2.3474281160824519e+00 1.7980351361909687e+01 0 0 0
114 1 1 -5.7538799475733080e-03 2.3159537868562573e+01 2.5443018376343680e+00 1.7373679397461437e+01 0 0 0
115 1 1 -5.4223357470476879e-03 6.3302916092461423e+00 9.9161040383660985e+00 6.4714709711619438e+00 0 0 0
116 1 1 -6.2521343103529026e-03 2.1755197339997519e+01 9.8852915528431780e+00 6.4583925187845264e+00 0 0 0
117 1 1 -7.0579081185336186e-03 6.9301971893337111e-01 1.0104574622508448e+01 1.7487135124566887e+01 0 0 0
118 1 1 -7.4738519264064829e-03 1.5812346329583827e+01 9.7603609302818004e+00 1.7597456248351701e+01 0 0 0
119 1 1 -6.5395833359831734e-03 1.3987600057201551e+01 1.8745308029993024e+00 6.7353389707035705e+00 0 0 0
120 1 1 -9.2657365154662219e-03 2.9023731736570522e+01 2.5398273773943361e+00 6.4322046415437413e+00 0 0 0
121 1 1 -5.4801592960930963e-03 7.9041393238340820e+00 7.6104457936042351e+00 1.7652223665890531e+01 0 0 0
122 1 1 -1.0497297279894131e-02 2.3039364571956931e+01 7.8287925710908217e+00 1.7329304050136177e+01 0 0 0
123 1 1 -1.3003167903676199e-02 6.6891832078251978e+00 4.9323429409894786e+00 6.3808120820605794e+00 0 0 0
124 1 1 -4.1591141648668235e-03 2.1622430600165767e+01 4.8386693692096658e+00 6.6784740854732974e+00 0 0 0
125 1 1 -1.2184661167027554e-02 4.2168753482093352e-01 4.6724857279530685e+00 1.7451456806131162e+01 0 0 0
126 1 1 -7.7876706129524978e-03 1.5602425102310079e+01 4.6477025265499616e+00 1.7778636301829636e+01 0 0 0
127 1 1 -9.9141582109381482e-03 1.4162518481257578e+01 7.4138106256119407e+00 6.4485230806293554e+00 0 0 0
128 1 1 -5.6202250967812284e-03 2.9415991073478782e+01 7.5463189734420393e+00 6.5006376494942550e+00 0 0 0
129 1 1 -5.6494685011978907e-02 9.5190281682404709e+00 2.5344848044937867e+00 1.8076922950227932e+01 0 0 0
130 1 1 -6.9074196497979107e-02 2.4570035737981687e+01 2.7375900727006095e+00 1.7437459672202049e+01 0 0 0
131 1 1 -6.6103942980173788e-02 4.9178673056002085e+00 9.8496640122664036e+00 6.5510691513057067e+00 0 0 0
132 1 1 -5.8173462880641597e-02 2.0345029433758935e+01 9.8428177656618452e+00 6.4321489444998159e+00 0 0 0
133 1 1 -6.5426895372416277e-02 2.1171452116711245e+00 9.9975704967633341e+00 1.7549464787261297e+01 0 0 0
134 1 1 -6.4466037955526745e-02 1.7247148094495785e+01 9.8135873715617024e+00 1.7666638705410282e+01 0 0 0
135 1 1 -6.3240156490063676e-02 1.2576682610108298e+01 2.1823745107594990e+00 6.8555274172916576e+00 0 0 0
136 1 1 -7.3272009557494966e-02 2.7592542469176095e+01 2.8460466942180069e+00 6.5826672469174614e+00 0 0 0
137 1 1 -6.0306876765669315e-02 9.2875648707725862e+00 7.8548060715054495e+00 1.7793507254001003e+01 0 0 0
138 1 1 -6.8217917744452683e-02 2.4491588703172159e+01 7.9483817025572376e+00 1.7363684998152671e+01 0 0 0
139 1 1 -6.7678013800170703e-02 5.3147163728643152e+00 4.6841499381297620e+00 6.4658624246958460e+00 0 0 0
140 1 1 -6.8182029786545306e-02 2.0253508094387509e+01 4.4548940690258068e+00 6.6952437414808648e+00 0 0 0
141 1 1 -6.4496698874254521e-02 1.8147063663276062e+00 4.4679906712410435e+00 1.7577534485935448e+01 0 0 0
142 1 1 -5.7430661436954245e-02 1.6995905275074673e+01 4.4781488336263759e+00 1.7989664269842045e+01 0 0 0
143 1 1 -7.5221845120179626e-02 1.2745513369802167e+01 7.7161013386949424e+00 6.4672686139539568e+00 0 0 0
144 1 1 -5.9532789548021256e-02 2.8085413128851545e+01 8.0116966568004351e+00 6.8096315818982021e+00 0 0 0
145 1 1 -8.9625745021369024e-02 1.0146754769134631e+01 1.7272720117095677e+00 1.9025733328376333e+01 0 0 0
146 1 1 -9.6175485102536457e-02 2.5314375478353575e+01 1.9692101934357953e+00 1.8351810619728042e+01 0 0 0
147 1 1 -9.0243430385880397e-02 4.3011334704889279e+00 1.0659570254885262e+01 7.5683894689827973e+00 0 0 0
148 1 1 -9.5466528601195588e-02 1.9569912484829107e+01 1.0576139625022163e+01 7.3595699941944090e+00 0 0 0
149 1 1 -9.6537152373837878e-02 2.7946982915919243e+00 1.0832917294967272e+01 1.8449174884017662e+01 0 0 0
150 1 1 -1.0034810752841646e-01 1.7759055549093379e+01 1.0661620468182967e+01 1.8666834064662865e+01 0 0 0
151 1 1 -9.6142351046562838e-02 1.1842849796835612e+01 1.4577512447214764e+00 7.8128888094351421e+00 0 0 0
152 1 1 -9.4192476626488122e-02 2.6941807524937513e+01 2.0958237517181009e+00 7.5777192310084462e+00 0 0 0
153 1 1 -9.2651739658669130e-02 9.9605174944637458e+00 7.1912068397703033e+00 1.8833447696569603e+01 0 0 0
154 1 1 -9.8285277783008648e-02 2.5048988027973021e+01 7.2846011590335875e+00 1.8478270895093761e+01 0 0 0
155 1 1 -9.7596798094197273e-02 4.5845672571958609e+00 5.4305742569485274e+00 7.4440002187923948e+00 0 0 0
156 1 1 -9.7013987665084539e-02 1.9471610920932783e+01 5.1139617133798136e+00 7.6921211749382863e+00 0 0 0
157 1 1 -9.4353878549853165e-02 2.4313700511485656e+00 5.3778755346439198e+00 1.8477642463535449e+01 0 0 0
158 1 1 -9.2127275548891358e-02 1.7585196066211235e+01 5.3578612618260504e+00 1.8965051226820322e+01 0 0 0
159 1 1 -1.0039856802449865e-01 1.1966885475688521e+01 6.9186700198926943e+00 7.3402010200376075e+00 0 0 0
160 1 1 -9.5202597468705422e-02 2.7322931761914486e+01 7.2673872665005899e+00 7.7631503609026691e+00 0 0 0
161 1 1 -6.1185365690598320e-02 9.6831437636458446e+00 1.1527505329820286e+01 1.9863733434424717e+01 0 -1 0
162 1 1 -5.2305011553636899e-02 2.4640417032434190e+01 1.0518520169329344e+00 1.9237045352179617e+01 0 0 0
163 1 1 -5.1825016916927327e-02 4.8339421063949572e+00 7.7034648635191816e-01 8.4308898228519897e+00 0 1 0
164 1 1 -5.7432999387677444e-02 2.0173233495744668e+01 1.1468266003684167e+01 8.2903095218532350e+00 0 0 0
165 1 1 -4.8049700021754675e-02 2.0402454470373312e+00 1.0160708090425759e+00 1.9302880425792736e+01 0 1 0
166 1 1 -5.3322345992498577e-02 1.6983674912729818e+01 1.1415555556148979e+01 1.9599535725050035e+01 0 0 0
167 1 1 -5.8142878627335186e-02 1.2511658265678012e+01 1.1117391212771627e+01 8.4951373010943332e+00 0 -1 0
168 1 1 -5.2599817062249102e-02 2.7537698829101643e+01 1.2064744253013986e+00 8.4656373989039597e+00 0 0 0
169 1 1 -4.9963738955216053e-02 9.3039762552016754e+00 6.3821292612792400e+00 1.9813982779919940e+01 0 0 0
170 1 1 -5.4765241828084704e-02 2.4305762920999985e+01 6.4811842761176246e+00 1.9444055668339136e+01 0 0 0
171 1 1 -6.0427754224879823e-02 5.1526475672659551e+00 6.3563463617185736e+00 8.3676130254861665e+00 0 0 0
172 1 1 -4.9762389927404047e-02 1.9909719945189163e+01 6.1967248844347891e+00 8.4459390746926530e+00 0 0 0
173 1 1 -6.4493660833012917e-02 1.7427857463496288e+00 6.2554493314365773e+00 1.9325163315271297e+01 0 0 0
174 1 1 -5.7604150787794343e-02 1.6826658736599381e+01 6.2099798945136762e+00 1.9787541555336670e+01 0 0 0
175 1 1 -5.7411890692735848e-02 1.2483271813433461e+01 6.1178786022057121e+00 8.3935669656162712e+00 0 0 0
176 1 1 -5.2137393178902716e-02 2.7887090841137546e+01 6.1796627845439334e+00 8.4575278340579843e+00 0 0 0
177 1 1 -9.8678514040666798e-02 8.2495885421418240e+00 1.1463015837113609e+01 1.9764041576509495e+01 0 -1 0
178 1 1 -9.7675941039239406e-02 2.3383067281134956e+01 1.1594484260264617e+01 1.8992226334206553e+01 0 -1 0
179 1 1 -8.7397771569245580e-02 6.2048596949330568e+00 9.1606340262217745e-01 8.1408367282233343e+00 0 1 0
180 1 1 -1.0077083569302847e-01 2.1605505873601018e+01 1.1498323957894774e+01 8.2607674229171142e+00 0 0 0
181 1 1 -8.7822429619340517e-02 5.9826197944694370e-01 1.0670351795101261e+00 1.9160540063286508e+01 0 1 0
182 1 1 -9.6917941827371137e-02 1.5586376959554666e+01 1.1322844667784134e+01 1.9453175364547754e+01 0 0 0
183 1 1 -9.0313653076220982e-02 1.3823144107902570e+01 1.0779375423813592e+01 8.2195128442599277e+00 0 -1 0
184 1 1 -8.7436149685486339e-02 2.8934492038598478e+01 1.0212784146872331e+00 8.2639917692100315e+00 0 0 0
185 1 1 -9.4467618119980959e-02 7.9229661827765092e+00 6.2413726533574199e+00 1.9649654002407818e+01 0 0 0
186 1 1 -1.0649847534423094e-01 2.2889555639300465e+01 6.3697602109472378e+00 1.9299009597726776e+01 0 0 0
187 1 1 -1.0521009256325967e-01 6.5479885565112852e+00 6.5842634085386837e+00 8.1457752004597790e+00 0 0 0
188 1 1 -9.7325256575216151e-02 2.1258207968930556e+01 6.5754443452030396e+00 8.3421536290430218e+00 0 0 0
189 1 1 -1.0269567387592474e-01 3.3343157003483515e-01 6.3666879938577461e+00 1.9240517264508256e+01 0 0 0
190 1 1 -1.0206799686931713e-01 1.5445446925210616e+01 6.3476077842309904e+00 1.9517692068576622e+01 0 0 0
191 1 1 -8.9346756627354917e-02 1.3881655297467137e+01 5.9861409694398100e+00 8.3289735007882832e+00 0 0 0
192 1 1 -9.6203362688448812e-02 2.9244275395897979e+01 5.8619946534366720e+00 8.1792378416840830e+00 0 0 0
193 1 1 -5.3867145300273478e-02 7.4554823953903595e+00 1.3528564585968288e+00 1.8773838340062742e+01 0 0 0
194 1 1 -6.6701815659031050e-02 2.2494603368169596e+01 1.4938651357668717e+00 1.8072117872582421e+01 0 0 0
195 1 1 -5.5648247685835157e-02 6.9977146968415447e+00 1.0891679564067225e+01 7.2168745019302012e+00 0 0 0
196 1 1 -5.8460192687660117e-02 2.2378626809485720e+01 1.0816651726765938e+01 7.3112229369899548e+00 0 0 0
197 1 1 -6.4668349119854876e-02 1.4989295416222788e+01 1.0541730802724265e+01 1.8425800878496563e+01 0 0 0
198 1 1 -6.0255678932741058e-02 -1.7406343672484281e-02 1.1100294834847235e+01 1.8268363171270003e+01 1 0 0
199 1 1 -6.4619926110318165e-02 2.9704969079676545e+01 1.5660248865095694e+00 7.2009183479570620e+00 -1 0 0
200 1 1 -5.7867194172522993e-02 1.4631417696581378e+01 1.1515189891712968e+01 7.2945202808519713e+00 0 -1 0
201 1 1 -5.8813460483540012e-02 7.2353455182851762e+00 6.7508072420906329e+00 1.8554288181785552e+01 0 0 0
202 1 1 -6.3106759054177008e-02 2.2221347966218008e+01 7.1110375366271850e+00 1.8263990985538953e+01 0 0 0
203 1 1 -6.8856052686355460e-02 7.3041925056402102e+00 5.9585613017523045e+00 7.1331323040827250e+00 0 0 0
204 1 1 -5.9539525106053301e-02 2.2162623901637417e+01 5.8828060353878930e+00 7.4810624657857794e+00 0 0 0
205 1 1 -7.3307786446981826e-02 1.4811874742691359e+01 5.6552705172492495e+00 1.8436931839964863e+01 0 0 0
206 1 1 -6.6006271529324034e-02 -3.3396217198689715e-01 5.5842366462290123e+00 1.8243009425881752e+01 1 0 0
207 1 1 -6.8505421113860862e-02 3.0015498809819046e+01 6.4683657440987590e+00 7.1824513905742968e+00 -1 0 0
208 1 1 -6.6141889785856306e-02 1.4791742111825457e+01 6.5246659090402650e+00 7.3314935738802944e+00 0 0 0
209 1 1 -3.1733591529089955e-01 7.3815442742708326e+00 3.1573584069440321e+00 1.6884722650712490e+01 0 0 0
210 1 1 -3.0162910573660473e-01 2.2467989042810263e+01 3.3971068486984568e+00 1.6321573840008231e+01 0 0 0
211 1 1 -3.1417853443087213e-01 7.0649075359815230e+00 8.8668938743684738e+00 5.5521788034105386e+00 0 0 0
212 1 1 -2.9913307071599760e-01 2.2477755510210585e+01 9.3337940192870761e+00 5.1990018190952227e+00 0 0 0
213 1 1 -3.0767679841435175e-01 1.5044223178243943e+01 8.8605074733214817e+00 1.6582513755611956e+01 0 0 0
214 1 1 -3.1117578895254766e-01 -5.5384011247792353e-02 9.1302957711773427e+00 1.6518106989180264e+01 1 0 0
215 1 1 -3.0472153946853492e-01 2.9864647480454483e+01 3.3439714559637141e+00 5.4483205963262087e+00 -1 0 0
216 1 1 -3.1678095078288704e-01 1.4769284991837173e+01 2.6730880594360391e+00 5.6592695062746445e+00 0 0 0
217 1 1 -3.0430284074021385e-01 7.1221831712117671e+00 8.3061964434223334e+00 1.6467030478104551e+01 0 0 0
218 1 1 -3.1068004286560891e-01 2.2227477358430875e+01 8.6654890981553194e+00 1.6320254698375411e+01 0 0 0
219 1 1 -3.0034749478971595e-01 7.6372487833664788e+00 4.2025726435976409e+00 5.3694573067042617e+00 0 0 0
220 1 1 -3.1186582824622205e-01 2.2662652837915978e+01 4.1138081405984828e+00 5.8066462685638767e+00 0 0 0
221 1 1 -3.1498948911184665e-01 1.4943504573045084e+01 3.7886906353816499e+00 1.6689853970862899e+01 0 0 0
222 1 1 -3.1352757081939830e-01 -2.7013877671372788e-01 3.7412230445593488e+00 1.6436297262262723e+01 1 0 0
223 1 1 -3.1582381658912584e-01 -1.3837658395026470e-01 8.3915483624802700e+00 5.3917192439354142e+00 0 0 0
224 1 1 -3.0472535342626689e-01 1.4979551429902459e+01 8.2095105962408432e+00 5.3703461141021522e+00 0 0 0
225 1 2 3.8562892023438777e-01 6.1281108296762055e+00 1.1320247395122806e+01 3.3836890956921133e+00 0 0 0
226 1 2 3.9221461624876425e-01 2.1196139151284203e+01 8.8803941002189268e-01 3.0663001535041561e+00 0 1 0
227 1 2 3.9713320496024607e-01 8.3850403395280697e+00 1.1475628526903304e+01 1.4527750476948917e+01 0 -1 0
228 1 2 3.8639469869197052e-01 2.3361505766883997e+01 1.1358883102654893e+00 1.4090636079099937e+01 0 0 0
229 1 2 3.8269129058335971e-01 1.3599140111892215e+01 9.5167456578404841e-01 3.2192951379173973e+00 0 0 0
230 1 2 3.8362390012770448e-01 2.8692743362515433e+01 1.1292109448975083e+00 3.2754697984025398e+00 0 0 0
231 1 2 3.9093670581260426e-01 1.0133196387710992e+00 1.1419749096470539e+01 1.4475096863775583e+01 0 0 0
232 1 2 3.8317165150154769e-01 1.5928661663339707e+01 1.1367412536107551e+01 1.4371721065370998e+01 0 0 0
233 1 2 3.8198054299152884e-01 6.4494046706629113e+00 5.8266156964025546e+00 3.1883743435336847e+00 0 0 0
234 1 2 3.9173977652814579e-01 2.1531192650330304e+01 5.9457682857983389e+00 3.2851102131358205e+00 0 0 0
235 1 2 3.8093525934152206e-01 8.4461978981260302e+00 6.1377623659081468e+00 1.4211511478058652e+01 0 0 0
236 1 2 3.8802950406945669e-01 2.3331385225156502e+01 6.4256728562889878e+00 1.4212505312698406e+01 0 0 0
237 1 2 3.8236707063750269e-01 1.3807330278099856e+01 6.1907151657102082e+00 3.1067875725521690e+00 0 0 0
238 1 2 3.8591645011587944e-01 2.9218125757919559e+01 6.1807857968451803e+00 3.1079883150358674e+00 0 0 0
239 1 2 3.8768575619077583e-01 6.3209452449117220e-01 6.1377864595256684e+00 1.4297653986712170e+01 0 0 0
240 1 2 3.8357149020755921e-01 1.6030305036449093e+01 5.5442134899477189e+00 1.4145163406359748e+01 0 0 0
241 1 2 4.1174345846389138e-01 6.6167406600803265e+00 3.8293185058895216e+00 -5.1834515134655035e-01 0 0 0
242 1 2 4.0198931981418801e-01 2.1281604316564128e+01 3.9175591281599442e+00 -1.1074370549622194e+00 0 0 0
243 1 2 3.9814980141732664e-01 8.0910883662827384e+00 8.0055762600350615e+00 1.0658008775020074e+01 0 0 0
244 1 2 3.9156285628083570e-01 2.3105037516798163e+01 8.2191401179960408e+00 1.0467688212288943e+01 0 0 0
245 1 2 3.9688421489711262e-01 1.3990742411641424e+01 8.2291674824849181e+00 -6.3179605802748806e-01 0 0 0
246 1 2 4.0911180274277276e-01 2.8945795115004149e+01 8.9060455413355957e+00 -9.3701628501326328e-01 0 0 0
247 1 2 4.0429031541283500e-01 5.9828207236656339e-01 4.1827755149643808e+00 1.0681042442005408e+01 0 0 0
248 1 2 3.9849360237247794e-01 1.5544409348542539e+01 3.6654062417011808e+00 1.0402630251192475e+01 0 0 0
249 1 2 3.9902007539825074e-01 6.7140253297659287e+00 9.4044408372467263e+00 -4.1245332642691368e-01 0 0 0
250 1 2 4.1002468045366158e-01 2.1810495236238246e+01 9.6540100840064191e+00 -2.0675434285187044e-01 0 0 0
251 1 2 4.0840705981404041e-01 8.1069750102717553e+00 2.8010448562492520e+00 1.0382561630629255e+01 0 0 0
252 1 2 4.0960095193217666e-01 2.3363035984425945e+01 3.2015420127653615e+00 1.0157549745091318e+01 0 0 0
253 1 2 4.0346879718150086e-01 1.4138746183903116e+01 2.6731060844603247e+00 -6.9278398811360375e-01 0 0 0
254 1 2 4.0375858883426674e-01 2.9405279829926986e+01 2.5941783088484138e+00 -6.0156122263852640e-01 0 0 0
255 1 2 4.0019890641592448e-01 3.0344398145105023e-01 9.7407752973870387e+00 1.0651324149117269e+01 0 0 0
256 1 2 4.0174814027648026e-01 1.5477981457153978e+01 9.2792472944752902e+00 1.0679486231277469e+01 0 0 0
257 1 2 3.7716214961079197e-01 2.0325837651472574e+00 3.5312264695164495e+00 1.7715817204229687e+00 0 0 0
258 1 2 3.8835218757797296e-01 1.6907400536809767e+01 3.5012761302276836e+00 1.4909808106619296e+00 0 0 0
259 1 2 3.9002528444460077e-01 1.2501760305203838e+01 8.5907237725119323e+00 1.3340505610395653e+01 0 0 0
260 1 2 3.9172306844924226e-01 2.7628829795894788e+01 9.2336941278184206e+00 1.2686850416301841e+01 0 0 0
261 1 2 3.9346689812146990e-01 9.6488218220400110e+00 8.7388636081443138e+00 1.9696061227166690e+00 0 0 0
262 1 2 3.7990660551616257e-01 2.4657448240425470e+01 9.1031180999595325e+00 1.8736283766424995e+00 0 0 0
263 1 2 3.8761568966259463e-01 5.0945781237627017e+00 3.3335466550314807e+00 1.2864251110323471e+01 0 0 0
264 1 2 3.8946952813694175e-01 2.0042957191969368e+01 3.3967363694048265e+00 1.3002668860105414e+01 0 0 0
265 1 2 3.8736695529470577e-01 2.3213779796015395e+00 8.8882160077405761e+00 2.1519428222514558e+00 0 0 0
266 1 2 3.9780541783975248e-01 1.7284634552108290e+01 8.6490146488749957e+00 2.1173537569460370e+00 0 0 0
267 1 2 3.7735747572134670e-01 1.2385293738313496e+01 3.0105229015465294e+00 1.3148711475910320e+01 0 0 0
268 1 2 3.8658717407657484e-01 2.7587918994842632e+01 3.5806797538450841e+00 1.2959618838516356e+01 0 0 0
269 1 2 3.8181712965589576e-01 9.7080892428657073e+00 3.1905220286727958e+00 2.0243600153386385e+00 0 0 0
270 1 2 3.9521919284213824e-01 2.4891052035831400e+01 3.7138179247765382e+00 1.7871028067627339e+00 0 0 0
271 1 2 3.8677281553052401e-01 4.8930541625224073e+00 8.6822679981021125e+00 1.2766894795653828e+01 0 0 0
272 1 2 3.8498619293641856e-01 2.0093021404026729e+01 8.6556437058894513e+00 1.3007863217219683e+01 0 0 0
273 1 2 3.8850358835485771e-01 1.0384963546596618e+01 3.3190421227282529e+00 1.7025310115867953e+01 0 0 0
274 1 2 3.8740030387662683e-01 2.5299338155095491e+01 3.6066074829758978e+00 1.6416893357856662e+01 0 0 0
275 1 2 3.9972306835939519e-01 4.1070405545437323e+00 8.9359563773380302e+00 5.6679672892817727e+00 0 0 0
276 1 2 4.0449085780164079e-01 1.9514592669992670e+01 9.0536745085506212e+00 5.3648307680372076e+00 0 0 0
277 1 2 3.9204984302729429e-01 2.9335487381731902e+00 9.0220077069704789e+00 1.6738324226344325e+01 0 0 0