ITEM: TIMESTEP
0
ITEM: NUMBER OF ATOMS
576
ITEM: BOX BOUNDS xy xz yz pp pp pp
-3.8734541101000000e+00 1.7704000473000001e+01 0.0000000000000000e+00
0.0000000000000000e+00 2.5111999511699999e+01 -3.8734541101000000e+00
0.0000000000000000e+00 1.2813326682700000e+01 0.0000000000000000e+00
ITEM: ATOMS id type xs ys zs
1 1 0.223062 0.316224 0.868365
2 1 0.776938 0.683776 0.131635
3 1 0.026938 0.566224 0.631635
4 1 0.473062 0.933776 0.368365
5 1 0.223062 0.816224 0.868365
6 1 0.776938 0.183776 0.131635
7 1 0.026938 0.0662235 0.631635
8 1 0.473062 0.433776 0.368365
9 1 0.723062 0.316224 0.868365
10 1 0.276938 0.683776 0.131635
11 1 0.526938 0.566224 0.631635
12 1 0.973062 0.933776 0.368365
13 1 0.723062 0.816224 0.868365
14 1 0.276938 0.183776 0.131635
15 1 0.526938 0.0662235 0.631635
16 1 0.973062 0.433776 0.368365
17 1 0.156885 0.317663 0.68304
18 1 0.843115 0.682337 0.31696
19 1 0.0931137 0.567663 0.816959
20 1 0.406886 0.932337 0.183041
21 1 0.156885 0.817663 0.68304
22 1 0.843115 0.182337 0.316959
23 1 0.0931137 0.0676629 0.816959
24 1 0.406885 0.432337 0.183041
25 1 0.656885 0.317663 0.683041
26 1 0.343114 0.682337 0.316959
27 1 0.593115 0.567663 0.81696
28 1 0.906886 0.932337 0.183041
29 1 0.656885 0.817663 0.683041
30 1 0.343114 0.182337 0.316959
31 1 0.593114 0.0676629 0.816959
32 1 0.906885 0.432337 0.18304
33 1 0.276342 0.256665 0.69287
34 1 0.723658 0.743335 0.30713
35 1 0.973657 0.506665 0.80713
36 1 0.526343 0.993335 0.19287
37 1 0.276342 0.756665 0.692871
38 1 0.723657 0.243335 0.30713
39 1 0.973657 0.0066653 0.80713
40 1 0.526342 0.493335 0.19287
41 1 0.776343 0.256665 0.69287
42 1 0.223657 0.743335 0.30713
43 1 0.473658 0.506665 0.80713
44 1 0.0263427 0.993335 0.19287
45 1 0.776342 0.756665 0.69287
46 1 0.223657 0.243335 0.30713
47 1 0.473657 0.0066653 0.80713
48 1 0.0263423 0.493335 0.192871
49 1 0.296663 0.278995 0.875647
50 1 0.703337 0.721005 0.124353
51 1 0.953338 0.528995 0.624353
52 1 0.546662 0.971005 0.375647
53 1 0.296663 0.778995 0.875647
54 1 0.703337 0.221005 0.124353
55 1 0.953338 0.028995 0.624353
56 1 0.546663 0.471005 0.375647
57 1 0.796662 0.278995 0.875647
58 1 0.203338 0.721005 0.124353
59 1 0.453337 0.528995 0.624353
60 1 0.0466624 0.971005 0.375647
61 1 0.796663 0.778995 0.875647
62 1 0.203338 0.221005 0.124353
63 1 0.453338 0.028995 0.624353
64 1 0.0466626 0.471005 0.375647
65 1 0.333003 0.308239 0.720945
66 1 0.666997 0.691761 0.279055
67 1 0.916997 0.558239 0.779054
68 1 0.583003 0.941761 0.220945
69 1 0.333003 0.808239 0.720945
70 1 0.666997 0.191761 0.279055
71 1 0.916997 0.0582392 0.779054
72 1 0.583003 0.441761 0.220945
73 1 0.833003 0.308239 0.720945
74 1 0.166997 0.691761 0.279055
75 1 0.416997 0.558239 0.779055
76 1 0.0830027 0.941761 0.220946
77 1 0.833003 0.808239 0.720945
78 1 0.166997 0.191761 0.279054
79 1 0.416997 0.0582392 0.779054
80 1 0.0830027 0.441761 0.220945
81 1 0.214941 0.367544 0.712206
82 1 0.785059 0.632456 0.287794
83 1 0.0350588 0.617543 0.787794
84 1 0.464941 0.882457 0.212206
85 1 0.214941 0.867544 0.712206
86 1 0.785059 0.132457 0.287794
87 1 0.0350588 0.117543 0.787794
88 1 0.464941 0.382456 0.212206
89 1 0.714941 0.367543 0.712206
90 1 0.285059 0.632457 0.287794
91 1 0.535059 0.617544 0.787794
92 1 0.964941 0.882457 0.212206
93 1 0.714941 0.867544 0.712206
94 1 0.285059 0.132457 0.287794
95 1 0.535059 0.117543 0.787794
96 1 0.964941 0.382456 0.212206
97 2 0.208884 0.320634 0.94537
98 2 0.791116 0.679366 0.0546302
99 2 0.0411156 0.570634 0.55463
100 2 0.458884 0.929366 0.44537
101 2 0.208884 0.820634 0.94537
102 2 0.791116 0.179366 0.0546302
103 2 0.0411156 0.0706341 0.55463
104 2 0.458884 0.429366 0.44537
105 2 0.708884 0.320634 0.94537
106 2 0.291116 0.679366 0.0546302
107 2 0.541116 0.570634 0.55463
108 2 0.958884 0.929366 0.44537
109 2 0.708884 0.820634 0.94537
110 2 0.291116 0.179366 0.0546302
111 2 0.541116 0.0706341 0.55463
112 2 0.958884 0.429366 0.44537
113 2 0.0966826 0.328451 0.627866
114 2 0.903317 0.671548 0.372134
115 2 0.153318 0.578451 0.872134
116 2 0.346682 0.921549 0.127866
117 2 0.0966826 0.828452 0.627866
118 2 0.903317 0.171549 0.372134
119 2 0.153318 0.0784514 0.872134
120 2 0.346683 0.421549 0.127866
121 2 0.596683 0.328451 0.627866
122 2 0.403317 0.671549 0.372134
123 2 0.653317 0.578451 0.872134
124 2 0.846682 0.921549 0.127866
125 2 0.596683 0.828451 0.627866
126 2 0.403318 0.171549 0.372134
127 2 0.653318 0.0784514 0.872134
128 2 0.846683 0.421548 0.127866
129 2 0.296176 0.226305 0.642858
130 2 0.703824 0.773695 0.357142
131 2 0.953824 0.476305 0.857142
132 2 0.546176 0.0236949 0.142858
133 2 0.296176 0.726305 0.642858
134 2 0.703824 0.273695 0.357142
135 2 0.953824 0.976305 0.857142
136 2 0.546176 0.523695 0.142858
137 2 0.796176 0.226305 0.642858
138 2 0.203824 0.773695 0.357142
139 2 0.453824 0.476305 0.857142
140 2 0.0461756 0.023695 0.142858
141 2 0.796176 0.726305 0.642858
142 2 0.203824 0.273695 0.357142
143 2 0.453824 0.976305 0.857142
144 2 0.0461756 0.523695 0.142858
145 2 0.321224 0.263604 0.95854
146 2 0.678776 0.736396 0.04146
147 2 0.928776 0.513604 0.54146
148 2 0.571224 0.986396 0.45854
149 2 0.321224 0.763604 0.95854
150 2 0.678776 0.236396 0.04146
151 2 0.928776 0.0136041 0.54146
152 2 0.571224 0.486396 0.45854
153 2 0.821224 0.263604 0.95854
154 2 0.178776 0.736396 0.04146
155 2 0.428776 0.513604 0.54146
156 2 0.0712238 0.986396 0.45854
157 2 0.821224 0.763604 0.95854
158 2 0.178776 0.236396 0.04146
159 2 0.428776 0.0136041 0.54146
160 2 0.0712238 0.486396 0.45854
161 2 0.385756 0.306567 0.688951
162 2 0.614244 0.693433 0.311049
163 2 0.864244 0.556567 0.811049
164 2 0.635756 0.943433 0.188951
165 2 0.385756 0.806567 0.688951
166 2 0.614244 0.193433 0.311049
167 2 0.864244 0.0565671 0.811049
168 2 0.635756 0.443433 0.188951
169 2 0.885756 0.306567 0.688951
170 2 0.114244 0.693433 0.311049
171 2 0.364244 0.556567 0.811049
172 2 0.135756 0.943433 0.188951
173 2 0.885756 0.806567 0.688951
174 2 0.114244 0.193433 0.311049
175 2 0.364244 0.0565671 0.811049
176 2 0.135756 0.443433 0.188951
177 2 0.186514 0.406603 0.67741
178 2 0.813486 0.593397 0.32259
179 2 0.0634858 0.656604 0.82259
180 2 0.436514 0.843396 0.17741
181 2 0.186514 0.906603 0.67741
182 2 0.813486 0.0933965 0.32259
183 2 0.0634858 0.156604 0.82259
184 2 0.436514 0.343397 0.17741
185 2 0.686514 0.406604 0.67741
186 2 0.313486 0.593396 0.32259
187 2 0.563486 0.656603 0.82259
188 2 0.936514 0.843396 0.17741
189 2 0.686514 0.906603 0.67741
190 2 0.313486 0.0933965 0.32259
191 2 0.563486 0.156604 0.82259
192 2 0.936514 0.343397 0.17741
193 3 0.151333 0.295517 0.786537
194 3 0.848667 0.704483 0.213463
195 3 0.0986665 0.545518 0.713464
196 3 0.401333 0.954483 0.286537
197 3 0.151333 0.795517 0.786537
198 3 0.848667 0.204483 0.213463
199 3 0.0986665 0.0455176 0.713464
200 3 0.401333 0.454483 0.286537
201 3 0.651333 0.295517 0.786537
202 3 0.348667 0.704483 0.213463
203 3 0.598667 0.545517 0.713463
204 3 0.901334 0.954482 0.286536
205 3 0.651333 0.795517 0.786537
206 3 0.348667 0.204482 0.213463
207 3 0.598667 0.0455175 0.713463
208 3 0.901333 0.454483 0.286537
209 3 0.0712453 0.304697 0.806022
210 3 0.928755 0.695303 0.193978
211 3 0.178754 0.554697 0.693978
212 3 0.321245 0.945303 0.306022
213 3 0.0712453 0.804697 0.806023
214 3 0.928755 0.195303 0.193978
215 3 0.178754 0.0546968 0.693978
216 3 0.321245 0.445303 0.306022
217 3 0.571245 0.304697 0.806022
218 3 0.428755 0.695303 0.193978
219 3 0.678755 0.554697 0.693978
220 3 0.821246 0.945303 0.306022
221 3 0.571245 0.804697 0.806022
222 3 0.428755 0.195303 0.193978
223 3 0.678755 0.0546968 0.693978
224 3 0.821245 0.445303 0.306023
225 3 0.194651 0.275046 0.63518
226 3 0.805349 0.724954 0.36482
227 3 0.0553496 0.525046 0.864819
228 3 0.444651 0.974954 0.135181
229 3 0.194651 0.775046 0.63518
230 3 0.805349 0.224954 0.36482
231 3 0.0553495 0.0250464 0.864819
232 3 0.444651 0.474954 0.13518
233 3 0.694651 0.275046 0.63518
234 3 0.305349 0.724954 0.36482
235 3 0.555349 0.525046 0.86482
236 3 0.94465 0.974954 0.135181
237 3 0.694651 0.775046 0.63518
238 3 0.305349 0.224954 0.364819
239 3 0.555349 0.0250463 0.864819
240 3 0.944651 0.474954 0.13518
241 3 0.151622 0.252596 0.528455
242 3 0.848378 0.747404 0.471545
243 3 0.0983774 0.502596 0.971545
244 3 0.401623 0.997404 0.0284548
245 3 0.151622 0.752596 0.528455
246 3 0.848378 0.247404 0.471545
247 3 0.0983774 0.00259572 0.971545
248 3 0.401622 0.497404 0.0284547
249 3 0.651623 0.252596 0.528455
250 3 0.348378 0.747404 0.471545
251 3 0.598378 0.502596 0.971545
252 3 0.901623 0.997404 0.028455
253 3 0.651622 0.752596 0.528455
254 3 0.348377 0.247404 0.471545
255 3 0.598377 0.00259572 0.971545
256 3 0.901622 0.497404 0.0284546
257 3 0.282694 0.233184 0.798733
258 3 0.717306 0.766816 0.201268
259 3 0.967306 0.483184 0.701267
260 3 0.532694 0.0168162 0.298733
261 3 0.282694 0.733184 0.798732
262 3 0.717306 0.266816 0.201267
263 3 0.967306 0.983184 0.701267
264 3 0.532694 0.516816 0.298733
265 3 0.782694 0.233184 0.798733
266 3 0.217306 0.766816 0.201267
267 3 0.467306 0.483184 0.701267
268 3 0.0326938 0.0168162 0.298733
269 3 0.782694 0.733184 0.798733
270 3 0.217306 0.266816 0.201267
271 3 0.467306 0.983184 0.701267
272 3 0.0326938 0.516816 0.298732
273 3 0.219584 0.193632 0.80512
274 3 0.780416 0.806368 0.19488
275 3 0.0304159 0.443632 0.69488
276 3 0.469584 0.0563679 0.30512
277 3 0.219584 0.693632 0.80512
278 3 0.780416 0.306368 0.19488
279 3 0.0304159 0.943632 0.69488
280 3 0.469584 0.556368 0.30512
281 3 0.719584 0.193632 0.80512
282 3 0.280416 0.806368 0.19488
283 3 0.530416 0.443632 0.69488
284 3 0.969584 0.0563678 0.30512
285 3 0.719584 0.693632 0.80512
286 3 0.280416 0.306368 0.19488
287 3 0.530416 0.943632 0.69488
288 3 0.969584 0.556368 0.30512
289 3 0.360887 0.305558 0.838121
290 3 0.639113 0.694442 0.161879
291 3 0.889113 0.555558 0.661879
292 3 0.610887 0.944442 0.338121
293 3 0.360887 0.805558 0.838121
294 3 0.639113 0.194442 0.161879
295 3 0.889113 0.0555584 0.661879
296 3 0.610887 0.444442 0.338121
297 3 0.860887 0.305558 0.838121
298 3 0.139113 0.694442 0.161879
299 3 0.389113 0.555558 0.661879
300 3 0.110887 0.944442 0.33812
301 3 0.860887 0.805558 0.838121
302 3 0.139113 0.194442 0.161879
303 3 0.389113 0.0555584 0.661879
304 3 0.110887 0.444442 0.338121
305 3 0.398793 0.353941 0.900368
306 3 0.601207 0.646059 0.099632
307 3 0.851207 0.603941 0.599632
308 3 0.648793 0.896059 0.400368
309 3 0.398793 0.853941 0.900368
310 3 0.601207 0.146059 0.099632
311 3 0.851207 0.103941 0.599632
312 3 0.648793 0.396059 0.400368
313 3 0.898793 0.353941 0.900368
314 3 0.101207 0.646059 0.099632
315 3 0.351207 0.603941 0.599632
316 3 0.148793 0.896059 0.400368
317 3 0.898793 0.853941 0.900368
318 3 0.101207 0.146059 0.0996319
319 3 0.351207 0.103941 0.599632
320 3 0.148793 0.396059 0.400368
321 3 0.284186 0.35564 0.672186
322 3 0.715814 0.64436 0.327814
323 3 0.965814 0.60564 0.827814
324 3 0.534186 0.89436 0.172186
325 3 0.284186 0.85564 0.672186
326 3 0.715814 0.14436 0.327814
327 3 0.965814 0.10564 0.827814
328 3 0.534186 0.39436 0.172186
329 3 0.784186 0.35564 0.672186
330 3 0.215814 0.64436 0.327814
331 3 0.465814 0.60564 0.827814
332 3 0.0341858 0.89436 0.172186
333 3 0.784186 0.85564 0.672186
334 3 0.215814 0.14436 0.327814
335 3 0.465814 0.10564 0.827814
336 3 0.0341863 0.39436 0.172186
337 3 0.328248 0.403631 0.64516
338 3 0.671752 0.596369 0.35484
339 3 0.921751 0.653631 0.85484
340 3 0.578249 0.846369 0.14516
341 3 0.328248 0.903631 0.64516
342 3 0.671751 0.0963694 0.35484
343 3 0.921751 0.153631 0.85484
344 3 0.578249 0.346369 0.14516
345 3 0.828249 0.403631 0.64516
346 3 0.171751 0.596369 0.35484
347 3 0.421751 0.653631 0.85484
348 3 0.0782486 0.846369 0.14516
349 3 0.828249 0.903631 0.64516
350 3 0.171751 0.0963694 0.35484
351 3 0.421751 0.153631 0.85484
352 3 0.0782485 0.346369 0.14516
353 3 0.240407 0.37045 0.831006
354 3 0.759593 0.62955 0.168994
355 3 0.00959314 0.62045 0.668995
356 3 0.490407 0.87955 0.331006
357 3 0.240407 0.87045 0.831006
358 3 0.759593 0.12955 0.168994
359 3 0.00959313 0.12045 0.668995
360 3 0.490407 0.37955 0.331006
361 3 0.740407 0.37045 0.831006
362 3 0.259593 0.62955 0.168994
363 3 0.509593 0.62045 0.668994
364 3 0.990407 0.87955 0.331005
365 3 0.740407 0.87045 0.831006
366 3 0.259593 0.12955 0.168994
367 3 0.509593 0.12045 0.668995
368 3 0.990407 0.37955 0.331006
369 3 0.205756 0.417935 0.874683
370 3 0.794244 0.582065 0.125317
371 3 0.0442436 0.667935 0.625316
372 3 0.455756 0.832065 0.374684
373 3 0.205756 0.917935 0.874683
374 3 0.794244 0.0820653 0.125317
375 3 0.0442436 0.167935 0.625316
376 3 0.455756 0.332065 0.374683
377 3 0.705756 0.417935 0.874684
378 3 0.294244 0.582065 0.125316
379 3 0.544244 0.667935 0.625317
380 3 0.955756 0.832065 0.374684
381 3 0.705756 0.917935 0.874683
382 3 0.294244 0.0820654 0.125316
383 3 0.544244 0.167935 0.625316
384 3 0.955756 0.332065 0.374683
385 4 0.00944087 0.30835 0.727664
386 4 0.990559 0.69165 0.272336
387 4 0.240559 0.55835 0.772337
388 4 0.259441 0.94165 0.227664
389 4 0.00944097 0.80835 0.727664
390 4 0.990559 0.19165 0.272336
391 4 0.240559 0.0583504 0.772337
392 4 0.259441 0.44165 0.227664
393 4 0.509441 0.30835 0.727664
394 4 0.490559 0.69165 0.272336
395 4 0.740559 0.55835 0.772336
396 4 0.759441 0.94165 0.227663
397 4 0.509441 0.80835 0.727664
398 4 0.490559 0.19165 0.272336
399 4 0.740559 0.0583504 0.772337
400 4 0.759441 0.44165 0.227664
401 4 0.0662105 0.298902 0.898901
402 4 0.933789 0.701098 0.101099
403 4 0.18379 0.548902 0.601098
404 4 0.316211 0.951098 0.398901
405 4 0.0662105 0.798902 0.898901
406 4 0.933789 0.201098 0.101099
407 4 0.18379 0.048902 0.601098
408 4 0.316211 0.451098 0.398901
409 4 0.566211 0.298902 0.898901
410 4 0.433789 0.701098 0.101099
411 4 0.683789 0.548902 0.601099
412 4 0.816211 0.951098 0.398902
413 4 0.566211 0.798902 0.898901
414 4 0.433789 0.201098 0.101099
415 4 0.683789 0.048902 0.601098
416 4 0.816211 0.451098 0.398901
417 4 0.183411 0.214352 0.491826
418 4 0.816589 0.785648 0.508174
419 4 0.0665885 0.464351 0.00817428
420 4 0.433411 0.0356486 0.991826
421 4 0.183411 0.714352 0.491826
422 4 0.816589 0.285649 0.508174
423 4 0.0665885 0.964351 0.00817427
424 4 0.433411 0.535649 0.991826
425 4 0.683411 0.214351 0.491826
426 4 0.316589 0.785649 0.508174
427 4 0.566589 0.464351 0.00817405
428 4 0.933412 0.0356488 0.991826
429 4 0.683411 0.714351 0.491826
430 4 0.316589 0.285649 0.508174
431 4 0.566588 0.964351 0.00817425
432 4 0.933411 0.535648 0.991826
433 4 0.0878059 0.274971 0.474881
434 4 0.912194 0.725029 0.525119
435 4 0.162194 0.524972 0.0251188
436 4 0.337806 0.975029 0.974881
437 4 0.0878061 0.774971 0.474882
438 4 0.912194 0.225029 0.525119
439 4 0.162194 0.0249715 0.0251188
440 4 0.337806 0.475029 0.974881
441 4 0.587806 0.274971 0.474881
442 4 0.412194 0.725029 0.525119
443 4 0.662194 0.524971 0.0251186
444 4 0.837806 0.975028 0.974881
445 4 0.587806 0.774971 0.474881
446 4 0.412194 0.225029 0.525119
447 4 0.662194 0.0249715 0.0251188
448 4 0.837806 0.475029 0.974882
449 4 0.190623 0.162434 0.727812
450 4 0.809377 0.837566 0.272188
451 4 0.0593768 0.412434 0.772188
452 4 0.440623 0.0875656 0.227812
453 4 0.190623 0.662434 0.727812
454 4 0.809377 0.337566 0.272188
455 4 0.0593768 0.912434 0.772188
456 4 0.440623 0.587566 0.227812
457 4 0.690623 0.162434 0.727812
458 4 0.309377 0.837566 0.272188
459 4 0.559377 0.412434 0.772188
460 4 0.940623 0.0875656 0.227812
461 4 0.690623 0.662434 0.727812
462 4 0.309377 0.337566 0.272188
463 4 0.559377 0.912434 0.772188
464 4 0.940623 0.587566 0.227812
465 4 0.202867 0.189043 0.891615
466 4 0.797133 0.810957 0.108385
467 4 0.0471334 0.439043 0.608385
468 4 0.452867 0.0609568 0.391615
469 4 0.202867 0.689043 0.891615
470 4 0.797133 0.310957 0.108385
471 4 0.0471334 0.939043 0.608385
472 4 0.452867 0.560957 0.391615
473 4 0.702867 0.189043 0.891615
474 4 0.297133 0.810957 0.108385
475 4 0.547133 0.439043 0.608385
476 4 0.952867 0.0609568 0.391615
477 4 0.702867 0.689043 0.891615
478 4 0.297133 0.310957 0.108385
479 4 0.547133 0.939043 0.608385
480 4 0.952867 0.560957 0.391615
481 4 0.430404 0.389336 0.856701
482 4 0.569596 0.610664 0.143299
483 4 0.819596 0.639336 0.643299
484 4 0.680404 0.860664 0.356701
485 4 0.430404 0.889336 0.856701
486 4 0.569596 0.110664 0.143299
487 4 0.819596 0.139336 0.643299
488 4 0.680404 0.360664 0.356701
489 4 0.930404 0.389336 0.856701
490 4 0.0695957 0.610664 0.143299
491 4 0.319596 0.639336 0.643299
492 4 0.180404 0.860664 0.356701
493 4 0.930404 0.889336 0.856701
494 4 0.0695957 0.110664 0.143299
495 4 0.319596 0.139336 0.643299
496 4 0.180404 0.360664 0.356701
497 4 0.399967 0.357119 0.996299
498 4 0.600033 0.642881 0.00370095
499 4 0.850033 0.607119 0.503701
500 4 0.649967 0.892881 0.496299
501 4 0.399967 0.857119 0.996299
502 4 0.600033 0.142881 0.00370096
503 4 0.850033 0.107119 0.503701
504 4 0.649967 0.392881 0.496299
505 4 0.899967 0.357119 0.996299
506 4 0.100033 0.642881 0.00370097
507 4 0.350033 0.607119 0.503701
508 4 0.149967 0.892881 0.496299
509 4 0.899967 0.857119 0.996299
510 4 0.100033 0.142881 0.00370099
511 4 0.350033 0.107119 0.503701
512 4 0.149967 0.392881 0.496299
513 4 0.298955 0.450264 0.643616
514 4 0.701045 0.549736 0.356384
515 4 0.951045 0.700264 0.856384
516 4 0.548955 0.799736 0.143616
517 4 0.298955 0.950264 0.643616
518 4 0.701045 0.0497361 0.356384
519 4 0.951045 0.200264 0.856384
520 4 0.548955 0.299736 0.143616
521 4 0.798955 0.450264 0.643616
522 4 0.201045 0.549736 0.356384
523 4 0.451045 0.700264 0.856384
524 4 0.0489548 0.799736 0.143616
525 4 0.798955 0.950264 0.643616
526 4 0.201045 0.0497361 0.356384
527 4 0.451045 0.200264 0.856384
528 4 0.0489547 0.299736 0.143616
529 4 0.389062 0.39515 0.614207
530 4 0.610938 0.60485 0.385793
531 4 0.860938 0.64515 0.885793
532 4 0.639062 0.85485 0.114207
533 4 0.389062 0.89515 0.614207
534 4 0.610938 0.10485 0.385793
535 4 0.860938 0.14515 0.885793
536 4 0.639062 0.35485 0.114207
537 4 0.889062 0.39515 0.614207
538 4 0.110938 0.60485 0.385793
539 4 0.360938 0.64515 0.885793
540 4 0.139062 0.85485 0.114207
541 4 0.889062 0.89515 0.614207
542 4 0.110938 0.10485 0.385793
543 4 0.360938 0.14515 0.885793
544 4 0.139062 0.35485 0.114207
545 4 0.196658 0.46214 0.824959
546 4 0.803342 0.53786 0.175041
547 4 0.0533423 0.71214 0.675041
548 4 0.446658 0.78786 0.324959
549 4 0.196658 0.96214 0.824959
550 4 0.803342 0.0378601 0.175041
551 4 0.0533423 0.21214 0.675041
552 4 0.446658 0.28786 0.324959
553 4 0.696658 0.46214 0.824959
554 4 0.303342 0.53786 0.175041
555 4 0.553342 0.71214 0.675041
556 4 0.946658 0.78786 0.324959
557 4 0.696658 0.96214 0.824959
558 4 0.303342 0.0378601 0.175041
559 4 0.553342 0.21214 0.675041
560 4 0.946658 0.28786 0.324959
561 4 0.198089 0.41456 0.966609
562 4 0.801911 0.58544 0.0333907
563 4 0.0519109 0.66456 0.533391
564 4 0.448089 0.83544 0.466609
565 4 0.198089 0.914559 0.966609
566 4 0.801911 0.0854405 0.0333907
567 4 0.0519109 0.16456 0.533391
568 4 0.448089 0.33544 0.466609
569 4 0.698089 0.41456 0.966609
570 4 0.301911 0.58544 0.0333907
571 4 0.551911 0.66456 0.533391
572 4 0.948089 0.83544 0.466609
573 4 0.698089 0.91456 0.966609
574 4 0.301911 0.0854404 0.0333907
575 4 0.551911 0.16456 0.533391
576 4 0.948089 0.335441 0.466609
ITEM: TIMESTEP
1000
ITEM: NUMBER OF ATOMS
576
ITEM: BOX BOUNDS xy xz yz pp pp pp
-5.3441874599008159e+00 1.7839089939997482e+01 -4.2901193269731402e-01
-1.8880411264013580e-01 2.4988866572381596e+01 -4.7800860602059476e+00
-1.5704848928304571e-01 1.2970375171983052e+01 -3.1193705195851712e-01
ITEM: ATOMS id type xs ys zs
1 1 0.240288 0.318061 0.888589
2 1 0.756127 0.68317 0.132015
3 1 0.00526878 0.572983 0.612584
4 1 0.486234 0.932129 0.377532
5 1 0.218688 0.817746 0.865535
6 1 0.772578 0.183758 0.114946
7 1 0.0185756 0.0612136 0.614953
8 1 0.496482 0.427377 0.390257
9 1 0.730854 0.317721 0.874119
10 1 0.258525 0.68515 0.109381
11 1 0.507978 0.576519 0.633187
12 1 0.98654 0.935289 0.373206
13 1 0.736791 0.821018 0.884893
14 1 0.272157 0.179822 0.13431
15 1 0.494724 0.074465 0.628053
16 1 0.988237 0.430512 0.369101
17 1 0.154531 0.301605 0.706694
18 1 0.844814 0.697281 0.304676
19 1 0.0973166 0.565474 0.792726
20 1 0.411713 0.945151 0.199473
21 1 0.143089 0.80578 0.683117
22 1 0.85947 0.192193 0.289307
23 1 0.0994013 0.0591707 0.795494
24 1 0.400649 0.440011 0.213967
25 1 0.646666 0.305966 0.699659
26 1 0.351928 0.692103 0.283556
27 1 0.598385 0.560406 0.801849
28 1 0.908197 0.939016 0.194425
29 1 0.650248 0.803149 0.70788
30 1 0.365171 0.192288 0.315771
31 1 0.590817 0.0678133 0.806517
32 1 0.920738 0.431007 0.188427
33 1 0.275442 0.248545 0.728124
34 1 0.730786 0.750998 0.307987
35 1 0.987545 0.503471 0.791926
36 1 0.534106 0.00467907 0.227784
37 1 0.260998 0.750833 0.703366
38 1 0.750468 0.253714 0.289245
39 1 0.979608 0.997532 0.779018
40 1 0.515211 0.498193 0.222499
41 1 0.764305 0.253755 0.698401
42 1 0.242832 0.747873 0.297315
43 1 0.478815 0.50074 0.779557
44 1 0.0308901 0.993298 0.207322
45 1 0.768122 0.748737 0.722844
46 1 0.246803 0.243846 0.303277
47 1 0.474607 0.00567898 0.800575
48 1 0.0431341 0.491591 0.208387
49 1 0.312041 0.28292 0.895318
50 1 0.683884 0.720065 0.127499
51 1 0.934295 0.536399 0.618311
52 1 0.564984 0.967695 0.395592
53 1 0.295605 0.779735 0.875778
54 1 0.70477 0.219373 0.11692
55 1 0.94608 0.0266764 0.610801
56 1 0.566548 0.466823 0.395077
57 1 0.807365 0.285643 0.869888
58 1 0.191141 0.721795 0.115567
59 1 0.435749 0.541903 0.623587
60 1 0.0624529 0.969212 0.383783
61 1 0.804597 0.784685 0.892561
62 1 0.200433 0.212016 0.137078
63 1 0.42693 0.0336708 0.625599
64 1 0.0599232 0.465759 0.382754
65 1 0.321407 0.301898 0.731107
66 1 0.682871 0.700423 0.304451
67 1 0.93411 0.554596 0.784591
68 1 0.581261 0.953041 0.232091
69 1 0.308058 0.802028 0.715557
70 1 0.696761 0.203376 0.281455
71 1 0.92815 0.0503533 0.767624
72 1 0.565423 0.449434 0.220351
73 1 0.814553 0.306248 0.703003
74 1 0.187347 0.698431 0.282132
75 1 0.431423 0.549986 0.789454
76 1 0.0791397 0.942301 0.222874
77 1 0.817613 0.800481 0.726126
78 1 0.197987 0.192847 0.295522
79 1 0.424079 0.0535139 0.795765
80 1 0.0941084 0.441618 0.224127
81 1 0.202598 0.35301 0.708317
82 1 0.795354 0.644916 0.299614
83 1 0.0457694 0.613066 0.790277
84 1 0.464054 0.895997 0.205925
85 1 0.190093 0.858366 0.695896
86 1 0.807827 0.142047 0.281759
87 1 0.0444002 0.107854 0.780526
88 1 0.449096 0.391448 0.210564
89 1 0.69375 0.357957 0.707834
90 1 0.295403 0.643392 0.272673
91 1 0.545105 0.610842 0.803232
92 1 0.957545 0.88785 0.213024
93 1 0.699074 0.856925 0.711791
94 1 0.316975 0.140091 0.306596
95 1 0.538015 0.114122 0.798564
96 1 0.974215 0.380357 0.212253
97 2 0.239178 0.327777 0.968115
98 2 0.758272 0.669995 0.0542964
99 2 0.00769222 0.577208 0.53418
100 2 0.479413 0.91877 0.448909
101 2 0.219587 0.818913 0.946572
102 2 0.771942 0.176887 0.0352427
103 2 0.019146 0.0655369 0.53309
104 2 0.507651 0.412389 0.466829
105 2 0.733368 0.328918 0.953419
106 2 0.25004 0.670837 0.0256346
107 2 0.510753 0.588163 0.555175
108 2 0.969591 0.932296 0.442902
109 2 0.733468 0.833639 0.960274
110 2 0.272644 0.172394 0.0541096
111 2 0.498663 0.0817829 0.550602
112 2 0.974602 0.421539 0.443982
113 2 0.0923314 0.308863 0.661827
114 2 0.907228 0.689404 0.352297
115 2 0.163548 0.572743 0.840114
116 2 0.350315 0.938838 0.139204
117 2 0.0795463 0.808901 0.627465
118 2 0.923211 0.185956 0.328854
119 2 0.160745 0.069211 0.84886
120 2 0.335104 0.428982 0.167382
121 2 0.583241 0.314614 0.658541
122 2 0.417189 0.682978 0.321227
123 2 0.663632 0.564113 0.856719
124 2 0.842628 0.932283 0.144204
125 2 0.584934 0.807009 0.660201
126 2 0.428399 0.190084 0.36506
127 2 0.657698 0.0778384 0.85091
128 2 0.85825 0.420707 0.129253
129 2 0.297185 0.219976 0.67975
130 2 0.709138 0.781034 0.350737
131 2 0.970771 0.470359 0.842215
132 2 0.560049 0.0388187 0.1975
133 2 0.277821 0.721692 0.652774
134 2 0.735703 0.287958 0.333367
135 2 0.955772 0.966894 0.819887
136 2 0.532428 0.530102 0.172444
137 2 0.78143 0.222081 0.653217
138 2 0.226328 0.780145 0.346276
139 2 0.465582 0.465435 0.824316
140 2 0.0567812 0.0247304 0.170858
141 2 0.786711 0.715476 0.68058
142 2 0.230439 0.277253 0.351125
143 2 0.459769 0.972733 0.84761
144 2 0.0615999 0.525963 0.171465
145 2 0.348078 0.269658 0.97474
146 2 0.650412 0.734192 0.0498462
147 2 0.893268 0.524816 0.539221
148 2 0.594675 0.97962 0.476996
149 2 0.329761 0.771843 0.960283
150 2 0.666041 0.231904 0.0393543
151 2 0.915218 0.00997132 0.528011
152 2 0.603449 0.480673 0.477695
153 2 0.845089 0.27089 0.947034
154 2 0.152332 0.735078 0.033313
155 2 0.397976 0.535409 0.539934
156 2 0.0938941 0.977944 0.466352
157 2 0.841152 0.779411 0.974892
158 2 0.164815 0.225373 0.0590946
159 2 0.383787 0.0255931 0.543544
160 2 0.0875775 0.477713 0.467106
161 2 0.367964 0.299014 0.690934
162 2 0.639465 0.709121 0.343343
163 2 0.892546 0.547666 0.825855
164 2 0.63238 0.960543 0.204893
165 2 0.356065 0.799687 0.679321
166 2 0.654833 0.210864 0.325206
167 2 0.878191 0.0474132 0.798371
168 2 0.608362 0.456679 0.181403
169 2 0.861833 0.30041 0.667586
170 2 0.147949 0.697543 0.3309
171 2 0.384815 0.539057 0.823021
172 2 0.129633 0.945475 0.194094
173 2 0.861309 0.795347 0.681087
174 2 0.16097 0.196598 0.347384
175 2 0.384009 0.0471373 0.837901
176 2 0.150001 0.441315 0.200004
177 2 0.165617 0.387649 0.663457
178 2 0.830967 0.609426 0.336021
179 2 0.0787182 0.651227 0.82414
180 2 0.427411 0.859893 0.159766
181 2 0.152134 0.89139 0.646687
182 2 0.842369 0.107466 0.317064
183 2 0.07731 0.146127 0.811483
184 2 0.411236 0.356031 0.167414
185 2 0.652944 0.392695 0.666941
186 2 0.330726 0.605628 0.309709
187 2 0.588458 0.646289 0.848851
188 2 0.918818 0.85301 0.16362
189 2 0.664263 0.890492 0.665134
190 2 0.35053 0.10648 0.34673
191 2 0.570724 0.15363 0.829004
192 2 0.943401 0.341732 0.172157
193 3 0.155245 0.286506 0.810998
194 3 0.837389 0.710719 0.192264
195 3 0.0845267 0.54796 0.678
196 3 0.410106 0.958487 0.312051
197 3 0.140201 0.793726 0.795399
198 3 0.853084 0.207475 0.176597
199 3 0.0995609 0.0392404 0.688922
200 3 0.413646 0.45162 0.332546
201 3 0.653013 0.289688 0.813753
202 3 0.34248 0.707522 0.174073
203 3 0.595172 0.551661 0.694178
204 3 0.909942 0.959825 0.309347
205 3 0.653665 0.793156 0.818005
206 3 0.354685 0.204473 0.200289
207 3 0.582524 0.0513202 0.699585
208 3 0.91138 0.450863 0.28973
209 3 0.0842862 0.306723 0.8378
210 3 0.906434 0.687301 0.166735
211 3 0.160479 0.562282 0.657305
212 3 0.330954 0.937209 0.316101
213 3 0.0672208 0.812974 0.819051
214 3 0.927279 0.191472 0.150385
215 3 0.178583 0.0491193 0.671992
216 3 0.347761 0.429059 0.366773
217 3 0.578684 0.308381 0.834409
218 3 0.410194 0.691669 0.133576
219 3 0.674941 0.564896 0.681369
220 3 0.839577 0.941535 0.338821
221 3 0.580633 0.812104 0.842
222 3 0.421553 0.178624 0.16993
223 3 0.653366 0.0558659 0.662506
224 3 0.83409 0.433779 0.309477
225 3 0.19083 0.25107 0.66398
226 3 0.820853 0.744229 0.35916
227 3 0.0754546 0.515196 0.84277
228 3 0.445955 0.996243 0.166917
229 3 0.173206 0.756444 0.644842
230 3 0.839951 0.241145 0.34486
231 3 0.0669394 0.0107249 0.837822
232 3 0.426732 0.489711 0.168856
233 3 0.672815 0.260951 0.645345
234 3 0.329186 0.737915 0.342674
235 3 0.568959 0.510177 0.840501
236 3 0.94234 0.982706 0.146859
237 3 0.680836 0.753623 0.666286
238 3 0.336062 0.240801 0.359191
239 3 0.561052 0.0149806 0.854465
240 3 0.959863 0.476608 0.14694
241 3 0.169961 0.248316 0.546128
242 3 0.842812 0.738398 0.47526
243 3 0.0939816 0.52065 0.958807
244 3 0.424824 0.992595 0.0509065
245 3 0.151393 0.74322 0.529067
246 3 0.857279 0.235569 0.459666
247 3 0.0823089 0.0233532 0.952537
248 3 0.393341 0.492954 0.0511555
249 3 0.638978 0.263269 0.528021
250 3 0.350879 0.727249 0.458582
251 3 0.589958 0.515694 0.956479
252 3 0.907935 0.00585446 0.0402294
253 3 0.657578 0.749491 0.550804
254 3 0.34888 0.239833 0.475009
255 3 0.587728 0.997623 0.964826
256 3 0.9052 0.509452 0.06038
257 3 0.292086 0.228421 0.84081
258 3 0.705763 0.771333 0.194456
259 3 0.956634 0.482853 0.681309
260 3 0.549835 0.0224843 0.340803
261 3 0.275213 0.727506 0.818808
262 3 0.733513 0.273327 0.181324
263 3 0.963799 0.97328 0.674754
264 3 0.542789 0.519062 0.337858
265 3 0.785104 0.235993 0.807367
266 3 0.219434 0.772759 0.18085
267 3 0.453678 0.484819 0.667836
268 3 0.0442635 0.0181698 0.316241
269 3 0.787722 0.729892 0.839753
270 3 0.222631 0.267113 0.193861
271 3 0.45362 0.983026 0.682598
272 3 0.0488758 0.515309 0.322436
273 3 0.225263 0.198666 0.862485
274 3 0.766697 0.808067 0.170464
275 3 0.014674 0.445239 0.652699
276 3 0.484104 0.0567165 0.355128
277 3 0.204589 0.696647 0.828979
278 3 0.794775 0.306355 0.150575
279 3 0.0352468 0.944024 0.66546
280 3 0.475587 0.548088 0.360626
281 3 0.724254 0.197042 0.821381
282 3 0.284196 0.806184 0.162308
283 3 0.512687 0.452745 0.63093
284 3 0.975324 0.0542778 0.317978
285 3 0.724315 0.700275 0.869552
286 3 0.286765 0.297874 0.166881
287 3 0.519924 0.954781 0.656818
288 3 0.979363 0.548095 0.327864
289 3 0.365227 0.31315 0.840555
290 3 0.625454 0.695179 0.167844
291 3 0.886221 0.563236 0.675917
292 3 0.620842 0.940449 0.353185
293 3 0.353158 0.806835 0.8339
294 3 0.645621 0.197516 0.165289
295 3 0.890108 0.0537344 0.656064
296 3 0.616438 0.442126 0.336511
297 3 0.85597 0.314725 0.814777
298 3 0.135447 0.696076 0.167729
299 3 0.382746 0.56719 0.683611
300 3 0.119359 0.938599 0.343094
301 3 0.864711 0.808514 0.83736
302 3 0.148072 0.179595 0.181733
303 3 0.372398 0.0556892 0.68349
304 3 0.128612 0.437964 0.335806
305 3 0.413767 0.359054 0.90715
306 3 0.582248 0.646783 0.108938
307 3 0.828404 0.605193 0.612043
308 3 0.664866 0.893174 0.41561
309 3 0.373282 0.862097 0.883621
310 3 0.608499 0.143154 0.119868
311 3 0.848016 0.102742 0.593845
312 3 0.663535 0.392588 0.383492
313 3 0.89931 0.367905 0.86383
314 3 0.093334 0.643663 0.116108
315 3 0.324686 0.606696 0.613682
316 3 0.145714 0.885574 0.395997
317 3 0.907637 0.860971 0.883678
318 3 0.0886142 0.142654 0.101748
319 3 0.33648 0.109751 0.639516
320 3 0.164813 0.387601 0.391198
321 3 0.266852 0.349478 0.66867
322 3 0.73051 0.654039 0.349718