LAMMPS data file via write_data, version 15 Apr 2020, timestep = 80000

576 atoms
4 atom types

-4.1386678446976077e-02 1.7745387151446348e+01 xlo xhi
-1.8525308404968399e-01 2.5297252595749576e+01 ylo yhi
-6.9046209930539781e-02 1.2882372892630745e+01 zlo zhi
3.6930392739127439e-02 -1.0834060298243922e+00 -4.2237129353268060e-01 xy xz yz

Masses

1 12.0107
2 1.00794
3 14.0067
4 15.9994

Atoms # full

7 1 1 4.2095985042803805e-02 -2.0263109597530837e-01 2.7823740796592107e+00 7.8670207967422616e+00 0 0 0
44 1 1 5.0229301674598610e-02 1.7480180965806220e+01 2.3549467430163393e+01 2.1263362281169238e+00 -1 0 0
83 1 1 5.3017148898969642e-02 -2.8545752907103306e-01 1.6294926844491854e+01 9.1630416705974156e+00 0 0 0
103 1 2 2.6347006393115341e-01 2.0549829520423979e-01 3.3381182406368959e+00 7.0420399466098127e+00 0 0 0
144 1 2 2.6133389159888681e-01 1.1620503283942868e-01 1.1564204081530995e+01 1.0875787559129513e+00 0 0 0
272 1 3 -1.2677003796572742e-01 8.4767913117631211e-01 1.1572445940837742e+01 3.1020420651063105e+00 0 0 0
275 1 3 3.3319578565845592e-01 7.3876154091692303e-01 1.2236034703217959e+01 7.8349814033542744e+00 0 0 0
359 1 3 -1.2032822960073028e-01 1.6729127290756566e+01 3.7256147545937517e+00 8.7723578582183457e+00 -1 0 0
419 1 4 -2.1683377494521625e-01 -5.3907118598216697e-01 1.3439042493503493e+01 1.2264624891980660e+01 0 0 0
490 1 4 -2.5581833626850220e-01 9.7592710995144683e-01 1.6385201664006345e+01 3.7923609930849782e+00 0 0 0
494 1 4 -2.5054891705131138e-01 1.8947293422753018e+00 4.3397643374026327e+00 8.6819921849783821e-02 0 0 0
3 1 1 4.4931588423838230e-02 1.8844392228400209e-01 1.5143554246929973e+01 7.0964381104748391e+00 0 0 0
99 1 2 2.5657013439431514e-01 4.8602973897807411e-01 1.5317020417073806e+01 6.0206497871692344e+00 0 0 0
355 1 3 -1.2282404486509976e-01 -3.0920375382984927e-01 1.6543109469301204e+01 7.6726606771477028e+00 0 0 0
108 1 2 2.5068063446691641e-01 3.5472463720723435e-02 2.2752703967923964e+01 6.1927907631585306e+00 1 0 0
112 1 2 2.7269681201487461e-01 1.1785284387721529e-01 1.0024785836289746e+01 6.0003340104743543e+00 1 0 0
19 1 1 5.0221560114331626e-02 8.2010924584187994e-01 1.5205158964268898e+01 9.3473043822774997e+00 0 0 0
23 1 1 4.8571824274408301e-02 2.1138276375608134e-01 2.1117047333664698e+00 1.0232952105330416e+01 0 0 0
60 1 1 5.9109137894762950e-02 8.5062071780460347e-01 2.3265447922979504e+01 4.1662354419875935e+00 0 0 0
64 1 1 5.1496204653046183e-02 9.8441778281564285e-01 1.0347227444867153e+01 4.0160292548309675e+00 0 0 0
76 1 1 4.8386361328643289e-02 3.9036760339406573e-01 2.2132137854361243e+01 2.1163572268206705e+00 0 0 0
80 1 1 4.8679644931614238e-02 3.4732833955645898e-01 9.5015194284975646e+00 1.9241796073527362e+00 0 0 0
87 1 1 4.4330331340651091e-02 1.6812667545889301e+01 3.0359475834317515e+00 1.0184246330145790e+01 -1 0 0
113 1 2 2.5611023057862409e-01 1.6033190350293651e+00 7.0668159446533521e+00 9.1654629817477122e+00 0 0 0
117 1 2 2.6892340086452549e-01 1.3515703191773878e+00 2.2097451991471626e+01 8.8181021489961751e+00 0 0 0
140 1 2 2.8312295464083365e-01 -1.0099745197996224e-01 2.3993796857922202e+01 1.1500301558835544e+00 0 -1 0
156 1 2 2.5311895114324257e-01 1.7233489041435517e+00 2.3689121749219328e+01 4.8043468739627979e+00 0 0 0
160 1 2 2.8262270728645777e-01 1.8917730970698123e+00 1.0609148508447648e+01 4.6302196528559350e+00 0 0 0
172 1 2 2.6585897338757969e-01 9.2720601601566432e-01 2.1892478853533806e+01 1.2003843377619408e+00 0 0 0
176 1 2 2.6676125886464447e-01 6.0691860102900130e-01 9.1891246089846597e+00 8.7148489887874070e-01 0 0 0
179 1 2 2.8280846421797512e-01 -5.2002046192642370e-02 1.7223634891647741e+01 9.7100829395033870e+00 0 0 0
183 1 2 2.7860267250921084e-01 1.6800836876838201e+01 3.8568624047910411e+00 1.0958024149553697e+01 -1 0 0
195 1 3 -1.3263162102128934e-01 1.3905127736973417e+00 1.4793295146087342e+01 7.8946008308161728e+00 0 0 0
199 1 3 -1.2301436827510955e-01 8.8551570113397127e-01 2.2702666294080989e+00 8.7604882975499372e+00 0 0 0
209 1 3 3.2852217857630228e-01 2.6453454116777437e+00 5.4705629008626300e+00 1.0895566879731554e+01 0 0 0
213 1 3 3.4745706828330714e-01 4.6001218422968893e-01 2.2145471055711202e+01 1.1362133203361385e+01 0 0 0
227 1 3 -1.2982106443180905e-01 3.4482288442340481e-01 1.3997918277435547e+01 1.0111865111954479e+01 0 0 0
231 1 3 -1.1211886804673524e-01 -1.1649067685909575e-01 5.8596623099799727e-01 1.0462588592281481e+01 0 0 0
243 1 3 3.2060544715625111e-01 6.2000628985124484e-02 1.4342936212201447e+01 1.1580888688951863e+01 0 0 0
247 1 3 3.2178642627099452e-01 -6.5190713237582387e-01 3.5173526767918784e-01 1.1882379828685362e+01 0 0 0
268 1 3 -1.3286410110067851e-01 4.0448414898359736e-01 2.4419064696629501e+01 3.1675217518685077e+00 0 -1 0
279 1 3 3.7273701513880547e-01 6.7270092929726588e-01 -3.1017127530082278e-01 7.7063686504643032e+00 0 1 0
300 1 3 -1.1753495913780582e-01 1.4323070843447749e+00 2.2177673593020383e+01 3.2234040060161462e+00 0 0 0
304 1 3 -1.1312447581493144e-01 1.4127776225979878e+00 9.2420602312636877e+00 2.9947166615951328e+00 0 0 0
314 1 3 3.1006737345186569e-01 1.2433336783991269e+00 1.5556663427290953e+01 2.8552800652953363e+00 0 0 0
318 1 3 3.2153987702174253e-01 2.6420043231786137e+00 3.3644808656484324e+00 4.1273715970422792e-01 0 0 0
348 1 3 3.5381802249885813e-01 3.8209618510080451e-02 1.9579915574475070e+01 2.2980278983836890e+00 0 0 0
352 1 3 3.4113965933381751e-01 1.7331423136788221e+01 7.0163849673488627e+00 2.0911778646327943e+00 -1 0 0
371 1 3 3.2199310186011898e-01 5.1339932833975588e-01 1.7793067649924030e+01 7.3128221419792778e+00 0 0 0
375 1 3 3.0657135295172516e-01 -5.6850893898717025e-01 5.1727349885935272e+00 8.8228891074767866e+00 0 0 0
385 1 4 -2.8834154726266248e-01 1.5051757999690203e+00 5.1736739275660524e+00 1.0390234711820067e+01 0 0 0
389 1 4 -2.3657508606330749e-01 -2.7457723183048477e-01 2.2648243111505295e+01 1.0399709513842360e+01 0 0 0
405 1 4 -3.3226990004954760e-01 2.3156957983144855e-01 2.2536421917227827e+01 1.2566609233874136e+01 0 0 0
433 1 4 -2.8917063368662443e-01 9.3678120915768115e-01 8.8497958828479657e+00 7.5882574608440301e+00 0 0 0
437 1 4 -2.7044946377539231e-01 2.3191490299228605e+00 2.1334737812265431e+01 6.6569005972520205e+00 0 0 0
451 1 4 -2.4026878621642006e-01 1.5009972787716301e+00 1.2083829850051098e+01 8.8621364511875278e+00 0 0 0
455 1 4 -3.6766739363696122e-01 1.0002293740764376e+00 2.3944641989410602e+01 7.8994223962710564e+00 0 0 0
467 1 4 -2.9536033513589244e-01 1.1557323419623318e+00 1.1961640120561084e+01 6.6588197512307534e+00 0 0 0
471 1 4 -2.6067692589677577e-01 1.4832512070036810e+00 5.0043818543435736e-01 7.1588767874090715e+00 0 1 0
506 1 4 -2.4171534458878036e-01 3.6635755138026227e-01 1.5146738881181466e+01 2.0122801756576134e+00 0 0 0
510 1 4 -2.5769981256541452e-01 2.2399152739180033e+00 2.2161844081425981e+00 1.2528590172155749e+01 0 0 -1
524 1 4 -2.3142818915870866e-01 1.3079500535443900e+00 1.9440604010239607e+01 2.2468459844017152e+00 0 0 0
528 1 4 -2.5316935169270310e-01 1.6401524524324202e+01 6.1377172034614969e+00 2.2633818516639796e+00 -1 0 0
542 1 4 -2.3489527080089354e-01 1.2902182338063297e+00 1.6917442542198107e+00 3.5392375699700080e+00 0 0 0
547 1 4 -2.2809796532720461e-01 7.5344143196098801e-01 1.8683569579064518e+01 8.2182213732037717e+00 0 0 0
551 1 4 -2.3909220392472824e-01 1.6803228644945186e+01 5.9352684055052336e+00 9.7757768083944327e+00 -1 0 0
563 1 4 -1.8437582252421689e-01 7.1753593951805861e-01 1.8058188494420083e+01 6.0826318831868198e+00 0 0 0
567 1 4 -2.1136186483417380e-01 -1.8725201479628151e-01 5.6591517805302427e+00 7.6918646153890862e+00 0 0 0
17 1 1 4.9492872506151281e-02 2.5823883858181063e+00 7.5208443248776611e+00 9.4483996857485870e+00 0 0 0
21 1 1 4.6606115400860494e-02 2.2181156841698577e+00 2.1601676602371043e+01 9.3690467897117244e+00 0 0 0
74 1 1 6.7823757778689320e-02 3.6836907101021850e+00 1.5522766787115648e+01 3.7277375748404191e+00 0 0 0
115 1 2 2.6739158451885237e-01 1.6951908296848055e+00 1.5592717066057400e+01 9.9375894959442874e+00 0 0 0
119 1 2 2.8348736508015665e-01 9.9902550463632600e-01 2.3879161070256760e+00 1.1031932501051095e+01 0 0 0
154 1 2 2.6816302946885384e-01 2.1908762232791377e+00 1.7009933813150596e+01 1.2238294225510287e+00 0 0 0
158 1 2 2.3507029620247497e-01 4.9684564429487530e+00 2.9952246364710708e+00 1.2022488661885711e+00 0 0 0
170 1 2 2.7664673118513611e-01 3.0411979957515207e+00 1.5018244499215623e+01 4.5790818741399972e+00 0 0 0
174 1 2 2.7495724694476414e-01 1.4002641896234489e+00 4.6657116744294846e+00 2.2750713030199301e+00 0 0 0
177 1 2 2.6161684394149298e-01 1.1310716080730456e+00 8.6002005426565145e+00 1.0583540547957490e+01 0 0 0
181 1 2 2.7503328283664458e-01 3.1904971974594134e+00 2.3563221767082926e+01 8.8754756101590750e+00 0 0 0
193 1 3 -1.3187559829852979e-01 3.5148181998523462e+00 6.4943634403164898e+00 1.0177829581536901e+01 0 0 0
197 1 3 -1.3277234488057205e-01 1.6771875155574532e+00 2.1324819571282259e+01 1.0992332177823116e+01 0 0 0
211 1 3 3.5376646667119704e-01 2.5901016403636818e+00 1.5703983265731658e+01 7.5908680976912146e+00 0 0 0
215 1 3 3.3008084318738951e-01 2.1161043461270150e+00 3.1997947392240436e+00 8.7414405916137738e+00 0 0 0
229 1 3 -1.1386189062750803e-01 2.5395177780690155e+00 2.0275224753378531e+01 8.7816061305374511e+00 0 0 0
245 1 3 3.4736705875235474e-01 2.7653960399332567e+00 2.0304977599288780e+01 7.2642622300867430e+00 0 0 0
298 1 3 -1.3781797484883188e-01 2.7137989300469991e+00 1.5471092797960521e+01 2.4309162328991589e+00 0 0 0
302 1 3 -1.0857292159844265e-01 2.9961364469663216e+00 3.2127120891067888e+00 1.9034972905580629e+00 0 0 0
316 1 3 3.1690063960696224e-01 2.7704488751317173e+00 2.2622547797928895e+01 2.6253624930046047e+00 0 0 0
320 1 3 3.0347524591630143e-01 2.8173722212298777e+00 9.5185497553682925e+00 2.4617999146180378e+00 0 0 0
346 1 3 3.4767544857418414e-01 4.3781468671741832e+00 1.3113910184397735e+01 3.2279285730588505e+00 0 0 0
401 1 4 -1.9886389103119945e-01 3.0824278648652621e+00 4.7678884105255088e+00 1.1899889607184992e+01 0 0 0
403 1 4 -3.2445329040821436e-01 3.1703764121352593e+00 1.5496775883998001e+01 6.4598833041053885e+00 0 0 0
407 1 4 -2.9623353211097131e-01 2.4085092131916568e+00 3.9357764804982978e+00 7.7200596258498146e+00 0 0 0
435 1 4 -2.8198048041502616e-01 4.6394411458571438e-01 1.5421262621004791e+01 1.2173683708972106e+01 0 0 -1
439 1 4 -2.1743101783190619e-01 -4.5650743255103365e-01 1.2211164546508462e+00 1.2789426437523410e+01 0 0 -1
538 1 4 -2.2648435244981102e-01 3.2444364303515054e+00 1.2673742675275371e+01 3.6812358481906919e+00 0 0 0
540 1 4 -2.6430806908393684e-01 1.7107635728997654e+01 1.8565938839489291e+01 2.6366114017807623e+00 -1 0 0
544 1 4 -2.7663871940014662e-01 6.4849896597244949e-01 6.6882461700500411e+00 1.5269801647709242e+00 0 0 0
561 1 4 -2.9570095630221682e-01 3.6851601762556880e+00 6.9849707849358378e+00 3.8242964301317073e-01 0 0 1
78 1 1 4.9865262596374429e-02 2.3816915469168904e+00 4.3745994263313399e+00 2.7189058892406051e+00 0 0 0
350 1 3 3.6227154565281694e-01 9.6435629365015463e-01 2.7962115386649629e+00 4.1105917633386646e+00 0 0 0
545 1 4 -2.8430054956949391e-01 8.4036489763188893e-01 7.7331451379065026e+00 1.2629472122613354e+01 0 0 0
12 1 1 4.1979467657605157e-02 -2.4068842159086234e-01 2.2700791365600054e+01 5.1028023867848189e+00 1 0 0
48 1 1 4.8105844436814593e-02 -6.0430020413321489e-02 1.0961384669773674e+01 2.0238092713637990e+00 0 0 0
336 1 3 -1.6552565914334691e-01 1.6897436900219088e+01 8.4956188808660080e+00 2.0540219031399216e+00 -1 0 0
62 1 1 2.5288151630070158e-02 4.5115159087076400e+00 3.5534809886021010e+00 2.0323673709440184e+00 0 0 0
225 1 3 -1.1864494971027595e-01 3.2130433914319196e+00 8.0635486581991564e+00 8.1274022597612898e+00 0 0 0
241 1 3 3.0866357744090644e-01 2.2067080864732436e+00 8.9134601733655252e+00 7.3547348350188129e+00 0 0 0
417 1 4 -2.9419193271842697e-01 2.6898909539091655e+00 9.6262601551740836e+00 6.3921828459933847e+00 0 0 0
421 1 4 -2.0825973538882925e-01 3.1634851485233604e+00 1.9207323634963746e+01 6.6738652585407241e+00 0 0 0
449 1 4 -2.5335151433333358e-01 4.6779726392910410e+00 6.1208829644499589e+00 8.0016882752362122e+00 0 0 0
453 1 4 -3.5710679497182007e-01 1.6898288377674677e+00 1.7507539329963905e+01 1.0810676266289050e+01 0 0 0
465 1 4 -2.2199468732845951e-01 6.4902831742678426e+00 5.7160799834832119e+00 9.1851286596188331e+00 0 0 0
508 1 4 -2.5745954977484464e-01 3.1947434314277312e+00 2.3802063221803721e+01 2.8791085479922520e+00 0 0 0
512 1 4 -2.0979957525329826e-01 2.9492270376229404e+00 1.0471842200655381e+01 1.6433422122568286e+00 0 0 0
549 1 4 -2.5331292767044400e-01 2.0018123614809022e+00 2.4847036314257423e+01 1.0190927441680298e+01 0 0 0
565 1 4 -2.0236138757833119e-01 2.0954624387115555e+00 2.4420695416739441e+01 1.2394143569117794e+01 0 0 0
1 1 1 5.3274810287923809e-02 4.1700587246157310e+00 7.4093457791162054e+00 1.1206835784250817e+01 0 0 0
4 1 1 5.1541572229601075e-02 7.6438662568519407e+00 2.2502951843810528e+01 5.5201003174342702e+00 0 0 0
5 1 1 5.6498684877431871e-02 2.8509122620190639e+00 2.1704482817354698e+01 1.1796776239039033e+01 0 0 0
10 1 1 4.0427796238996422e-02 4.3515355363339321e+00 1.6585342842143476e+01 8.1228764222431638e-01 0 0 0
14 1 1 3.7911369893271443e-02 5.1190910090362172e+00 3.1324058059525672e+00 3.3171027721904802e+00 0 0 0
20 1 1 4.7275070611917186e-02 6.5688497343969026e+00 2.2590996942593200e+01 3.3388383427303840e+00 0 0 0
24 1 1 5.5852187334059909e-02 7.0544664437400106e+00 9.7578124357380425e+00 3.4997753191874503e+00 0 0 0
26 1 1 3.5720053955203647e-02 6.0456127061567662e+00 1.6548320325792105e+01 2.4859954294915094e+00 0 0 0
30 1 1 4.4432360188531084e-02 4.3417558660114492e+00 4.7845464158620716e+00 4.8923373849947218e+00 0 0 0
33 1 1 4.7348879207892741e-02 4.4544643620403708e+00 8.8757434738778134e+00 8.5069853127732387e+00 0 0 0
37 1 1 5.1427412231031894e-02 3.7662434273839049e+00 1.9601021603062808e+01 9.5972415308427195e+00 0 0 0
42 1 1 5.6204235274263700e-02 4.0884167109179437e+00 1.6996557446172304e+01 4.0040302828556413e+00 0 0 0
46 1 1 7.0667814835016163e-02 3.3479095142793680e+00 5.6017890143790847e+00 2.8340157971229334e+00 0 0 0
49 1 1 4.1031903652540475e-02 5.3360243945946468e+00 8.2355458498393652e+00 1.0570434836242637e+01 0 0 0
53 1 1 5.8880072317641995e-02 3.8564522895448055e+00 2.0552986264740838e+01 1.1809607082140314e+01 0 0 0
58 1 1 5.1037745016899415e-02 3.1705014682763739e+00 1.6728625115667750e+01 1.7617799563730279e+00 0 0 0
59 1 1 5.4769341690231496e-02 7.8329952451113565e+00 1.4317127035178546e+01 6.9477901571928369e+00 0 0 0
63 1 1 4.4337748815237520e-02 7.0834410059513591e+00 1.4055869049724032e+00 8.4696239185200852e+00 0 0 0
65 1 1 5.3449629455986747e-02 4.1640464135151465e+00 9.9715606202165965e+00 9.5280138863112782e+00 0 0 0
69 1 1 6.3610423834213517e-02 4.9324186559901877e+00 2.0607221293561029e+01 9.6386376349213236e+00 0 0 0
75 1 1 5.6260893190624037e-02 6.7764511899219322e+00 1.4487273035746931e+01 9.1554971381641472e+00 0 0 0
79 1 1 5.4036767646377180e-02 7.1722049447593212e+00 2.0830951342192825e+00 1.0745696029467020e+01 0 0 0
81 1 1 3.5652775420802613e-02 2.2353130504650425e+00 8.6666566208723204e+00 1.0395189086585919e+01 0 0 0
84 1 1 3.8395166646113921e-02 7.2216631925234935e+00 2.1261948487906359e+01 3.5461639646908449e+00 0 0 0
85 1 1 4.8499943799930605e-02 3.3191372284176119e+00 2.2586385322638197e+01 9.5252228971198747e+00 0 0 0
90 1 1 4.9216830533784457e-02 5.6530013404515298e+00 1.5123200196371329e+01 2.2675175461428347e+00 0 0 0
94 1 1 6.6719650696419039e-02 3.3163748467631495e+00 3.5980856682757629e+00 4.8423180212849459e+00 0 0 0
97 1 2 2.6615679956991317e-01 4.6291281062075882e+00 6.6516787894424487e+00 1.1963505761967220e+01 0 0 0
100 1 2 2.5662049089764727e-01 7.3909292400744731e+00 2.2544040145821050e+01 6.6036389575660568e+00 0 0 0
101 1 2 2.6976499482294364e-01 2.5524115893013954e+00 2.1952420643054605e+01 1.2849643529345006e+01 0 0 0
106 1 2 2.4573454647517229e-01 3.0456651679251330e+00 1.6437452713359541e+01 1.2666920088282360e+01 0 0 -1
110 1 2 2.4015705607485249e-01 5.9944954267868660e+00 2.4189682057186630e+00 2.9748183792070146e+00 0 0 0
116 1 2 2.5713126492787491e-01 5.4905695889029404e+00 2.2538480548988456e+01 2.9706328092336971e+00 0 0 0
120 1 2 2.7558306424975726e-01 5.9222709278394401e+00 9.7700338640956534e+00 3.5361185489485725e+00 0 0 0
122 1 2 2.7863604844882395e-01 7.1344155807610843e+00 1.6726763455592494e+01 2.5498020326383695e+00 0 0 0
126 1 2 2.6043550931224524e-01 4.4415269632425272e+00 5.1766427225393183e+00 5.9362414147022635e+00 0 0 0
129 1 2 2.5542786931142353e-01 4.8104115923355266e+00 9.3644936314738665e+00 7.5260971009278146e+00 0 0 0
133 1 2 2.9089966041178261e-01 4.0932677872694674e+00 1.8650821138709162e+01 9.1621341178539382e+00 0 0 0
138 1 2 2.8401992113455232e-01 3.9913545465264360e+00 1.7401749763054173e+01 5.0560535036583252e+00 0 0 0
142 1 2 2.6466404643215541e-01 2.8833424146321738e+00 6.5824088861661396e+00 2.3445994659725216e+00 0 0 0
145 1 2 2.7143138121357763e-01 6.2987366048734392e+00 7.9952804948678065e+00 1.1079344679366869e+01 0 0 0
149 1 2 2.5970968381839465e-01 4.0593245752801570e+00 2.0129903006583213e+01 1.2862329211039160e+01 0 0 0
155 1 2 2.5687311147005298e-01 7.8381430776027505e+00 1.3960185385939344e+01 5.8867348265932451e+00 0 0 0
159 1 2 2.8415713031163814e-01 6.3257728317968089e+00 1.0555316616856054e+00 7.7001548980700045e+00 0 0 0
161 1 2 2.6368555273844324e-01 4.3050343628661230e+00 1.0978564511723434e+01 8.9676683233920400e+00 0 0 0
165 1 2 2.7902028252705530e-01 5.8916129692638997e+00 2.0197789157253386e+01 9.1564414326306505e+00 0 0 0
171 1 2 2.7535675979989671e-01 5.8579878094791615e+00 1.4098411626767664e+01 9.7657474470518508e+00 0 0 0
175 1 2 2.4215672569290800e-01 6.6305624853427449e+00 2.0945829522292927e+00 1.1743206194167367e+01 0 0 0
180 1 2 2.4760778296748973e-01 6.5250966560431367e+00 2.0463255533435756e+01 3.3059192404611464e+00 0 0 0
184 1 2 2.5883868521899372e-01 6.7411546175627119e+00 7.7858443369737387e+00 4.4756972687928043e+00 0 0 0
186 1 2 2.6044105305599546e-01 6.5610983831006058e+00 1.4473022725214664e+01 2.1999099563935007e+00 0 0 0
190 1 2 2.6115161961585753e-01 2.9271014673567501e+00 3.2453200605616743e+00 5.8944812881331856e+00 0 0 0
196 1 3 -1.3744651379580280e-01 6.5254307026215077e+00 2.3254715456769780e+01 4.7555415998817550e+00 0 0 0
200 1 3 -1.4787557214958280e-01 7.6120182140228687e+00 1.0819057375592191e+01 4.5430851495197135e+00 0 0 0
202 1 3 -1.4962904448472661e-01 5.5285620887329836e+00 1.7442853732691784e+01 1.2489910316348258e+00 0 0 0
206 1 3 -1.1413189152713596e-01 5.6230340742349130e+00 4.4158909409380493e+00 4.2548305447158743e+00 0 0 0
212 1 3 3.1330438723761833e-01 5.1390710946247884e+00 2.3099540413440369e+01 5.4007313271489883e+00 0 0 0
216 1 3 3.1656127613026597e-01 6.5031080327136035e+00 1.1096649190972235e+01 5.5491121043279596e+00 0 0 0
218 1 3 2.8761319968430454e-01 6.5373118655574443e+00 1.7515296202165111e+01 7.9267127364940709e-02 0 0 0
222 1 3 3.1400348999718908e-01 6.5969391088408456e+00 3.9211702088143152e+00 5.3236358008984945e+00 0 0 0
228 1 3 -1.4486648212006242e-01 7.3401195352447051e+00 2.3501688945919927e+01 2.3915639499019545e+00 0 0 0
232 1 3 -1.2695771443162115e-01 7.4180332016097106e+00 1.0009764429680999e+01 2.0297467594280527e+00 0 0 0
234 1 3 -1.5032400050725009e-01 5.6122781118428300e+00 1.7132331241039097e+01 3.8379139938040625e+00 0 0 0
238 1 3 -1.5393799797711791e-01 3.7296161372888865e+00 6.0597437804027434e+00 4.2092192754158138e+00 0 0 0
244 1 3 3.3579965721804955e-01 6.9363449983059207e+00 2.3428460775277873e+01 9.2421257616592567e-01 0 0 0
248 1 3 3.2386269779852717e-01 6.6764876179333763e+00 9.1604742808020685e+00 9.5621185525522567e-01 0 0 0
250 1 3 3.4632818503480728e-01 6.4418197656579794e+00 1.6593290396646076e+01 5.0346615460614670e+00 0 0 0
254 1 3 2.9174400758940516e-01 2.5486848219429401e+00 6.5472034389157878e+00 5.0652921456895985e+00 0 0 0
257 1 3 -1.1930846780296007e-01 5.6861685521481000e+00 8.0686676996798887e+00 9.0923497816073180e+00 0 0 0
261 1 3 -1.4299729561966906e-01 3.5270276794013533e+00 1.9143287979780297e+01 1.0979880437054209e+01 0 0 0
266 1 3 -1.0923300677476838e-01 3.2638931015163917e+00 1.7799614202248328e+01 3.0311043480787627e+00 0 0 0
270 1 3 -1.0991499279733964e-01 4.4672749580439781e+00 5.1842492658205952e+00 1.8952391770961177e+00 0 0 0
271 1 3 -1.2175527163013147e-01 7.4883223685318407e+00 1.1872830430191283e-01 9.2806958460801496e+00 0 1 0
273 1 3 3.5358593837338992e-01 5.6877180789125266e+00 6.5762280159382733e+00 8.6838448518683080e+00 0 0 0
276 1 3 3.6743672907894015e-01 8.1425193118839658e+00 8.3045335687821908e-03 4.3488989075043962e+00 0 0 0
277 1 3 3.4826117166735376e-01 2.1089145989129268e+00 1.8619070271100234e+01 1.1289350923022425e+01 0 0 0
282 1 3 3.5773759910395619e-01 3.9644086890561683e+00 1.9089415991405890e+01 2.6469981236813536e+00 0 0 0
286 1 3 3.4653880444856899e-01 5.8021033779187556e+00 5.9205808420525399e+00 2.0676012759371893e+00 0 0 0
289 1 3 -1.2658935884854497e-01 5.0960123688305927e+00 9.7368599619456102e+00 1.0755758795537862e+01 0 0 0
293 1 3 -1.2814529467126659e-01 5.1781961273811223e+00 2.0866054181659010e+01 1.1234138669557634e+01 0 0 0
299 1 3 -1.0296604602630671e-01 6.4388493659220929e+00 1.4604757176713051e+01 7.5994603279280515e+00 0 0 0
303 1 3 -1.1370736046233117e-01 6.2788197476187761e+00 2.2335426706503179e+00 9.4974514443463889e+00 0 0 0
305 1 3 3.3077337671572699e-01 6.3586906080950110e+00 1.0621279607106892e+01 1.0640113604442941e+01 0 0 0
309 1 3 3.4102812100022029e-01 6.3431899408267958e+00 2.0076605307288499e+01 1.1827356070806665e+01 0 0 0
315 1 3 3.4982902531289334e-01 5.3017786652982695e+00 1.3694180240228125e+01 7.1911156649741885e+00 0 0 0
319 1 3 3.2429689383171650e-01 4.9087271262836571e+00 1.5434156827823338e+00 9.7953968882686837e+00 0 0 0
321 1 3 -1.3525716940868343e-01 2.6970067899784764e+00 1.0047091789068475e+01 9.9484936118088605e+00 0 0 0
325 1 3 -1.2992193254588516e-01 4.6232977753203128e+00 2.1878581431722747e+01 8.9280830696646767e+00 0 0 0
330 1 3 -1.4879039990594622e-01 4.7788672435865731e+00 1.4557043771692173e+01 3.4891875622728912e+00 0 0 0
334 1 3 -1.6036662614577141e-01 2.0004841511125879e+00 3.9366190443803148e+00 4.1521583359968606e+00 0 0 0
337 1 3 3.4284818665290046e-01 2.3667708380659986e+00 1.1093969694888290e+01 1.1051523984830752e+01 0 0 0
341 1 3 3.4207014914540695e-01 5.7832617950175464e+00 2.2877052979464281e+01 9.0083050699139591e+00 0 0 0
347 1 3 3.8194810826641590e-01 5.6805364376810363e+00 1.6673623906103924e+01 9.5546899802164482e+00 0 0 0
351 1 3 3.5081497197223782e-01 7.3084219274922004e+00 4.5949416736454003e+00 1.1291185097253425e+01 0 0 0
353 1 3 -1.0563263881062174e-01 3.0214909958136085e+00 8.2893831777614349e+00 1.1738299625575678e+01 0 0 0
357 1 3 -1.2375709035180787e-01 3.4286010370555293e+00 2.3026488574507695e+01 1.0946043220095106e+01 0 0 0
362 1 3 -1.3174132622465956e-01 4.9194827294864973e+00 1.5076429893095868e+01 9.4630216838026837e-01 0 0 0
366 1 3 -1.3756508515591970e-01 4.0828682986377807e+00 2.4227205382732393e+00 4.1791497244747653e+00 0 0 0
369 1 3 3.3758835900671508e-01 2.1129559178811013e+00 7.5607350921217451e+00 1.2730412956189255e+01 0 0 0
372 1 3 3.3480522007107494e-01 6.5234387191571681e+00 2.0274971457082856e+01 5.8926119948257023e+00 0 0 0
373 1 3 3.0426888833636356e-01 2.5532334044686795e+00 2.4215570035580782e+01 1.1209428028127014e+01 0 0 0
378 1 3 3.0176499347512303e-01 4.7251003854128815e+00 1.4292692880769950e+01 1.2706139610656322e+01 0 0 -1
382 1 3 3.3134465421040638e-01 4.8580927370828491e+00 1.5279356927449312e+00 5.1676665105037927e+00 0 0 0
387 1 4 -2.7278258973679226e-01 2.7032444808442988e+00 1.6816045332302426e+01 8.2376796548278151e+00 0 0 0
388 1 4 -2.3192308650897930e-01 4.2534087964240461e+00 2.2279620703030673e+01 4.9571702087255218e+00 0 0 0
391 1 4 -2.0265318820829803e-01 2.9332835617571718e+00 3.0254880797992154e+00 9.7173829122515976e+00 0 0 0
392 1 4 -2.6179156728328878e-01 5.3184363733566631e+00 1.0620026353665043e+01 5.3791471758568479e+00 0 0 0
394 1 4 -1.8770648685144700e-01 7.7991732312050956e+00 1.7518204213281876e+01 3.1808440421331996e-01 0 0 0
404 1 4 -2.1962273134078367e-01 4.9701891905433575e+00 2.3599806558338500e+01 6.5728136367012473e+00 0 0 0
408 1 4 -2.8093203233078096e-01 6.8895081955800510e+00 1.1412757434491805e+01 6.7415822942201800e+00 0 0 0
410 1 4 -2.6852246769146904e-01 5.0182194087269956e+00 1.7363789875026999e+01 1.1837811255101368e+01 0 0 -1
414 1 4 -2.3185035733438467e-01 7.5255044171099588e+00 3.0919514906762933e+00 4.9998152564136014e+00 0 0 0
420 1 4 -2.5157274277742980e-01 7.8016641466477514e+00 2.3720202536468751e+01 -1.0735669879843451e-03 0 -1 0
424 1 4 -3.2938101653661334e-01 7.3519172234803731e+00 8.3239744215109290e+00 2.1520241657743666e-01 0 0 0
426 1 4 -2.5455766856419748e-01 5.9573418359660941e+00 1.6711692827373820e+01 6.1984190995657960e+00 0 0 0
430 1 4 -2.5557031633277444e-01 1.6675668453851560e+00 7.3650482710219745e+00 4.5951584331760005e+00 0 0 0
436 1 4 -3.3727806073394268e-01 5.7905015542388361e+00 2.2956689509876135e+01 6.0334798660810351e-01 0 0 1
440 1 4 -2.3321358864452513e-01 5.4163560895080662e+00 9.2087774422097048e+00 8.5674965382880519e-01 0 0 1
442 1 4 -3.6894629418024255e-01 7.4076956556257780e+00 1.5779833571305248e+01 4.7665776500261945e+00 0 0 0
446 1 4 -2.4542705530484937e-01 2.1790430502242693e+00 5.9082074656705013e+00 6.1218815114327434e+00 0 0 0
452 1 4 -2.6056205792090781e-01 7.4924971650260614e+00 5.1071766405655816e-01 3.3542390427444144e+00 0 0 0
456 1 4 -2.0075821243098840e-01 8.4624348668228446e+00 1.2844612032822708e+01 1.7449372579994262e+00 0 0 0
458 1 4 -2.6225793703176148e-01 4.4316507959358757e+00 1.9846729935645609e+01 3.5756221921344538e+00 0 0 0
462 1 4 -3.1547650176826159e-01 5.7545672511127490e+00 6.9651143768162473e+00 2.7895612340582501e+00 0 0 0
468 1 4 -2.6799969325729889e-01 8.0723511908652874e+00 5.6233248562529192e-01 5.5229321292062563e+00 0 0 0
469 1 4 -2.5191277914515087e-01 1.5194729609771762e+00 1.9193642791268879e+01 1.2267993516553176e+01 0 0 0
472 1 4 -2.7993493196932157e-01 8.8702230618381268e+00 1.2867642547876434e+01 3.9428795972746453e+00 0 0 0
474 1 4 -3.0165200105464401e-01 4.0819632972409972e+00 1.9455639392376231e+01 1.4197308213354822e+00 0 0 0
478 1 4 -2.2588407855637468e-01 6.9053746222085755e+00 5.3471977731328444e+00 1.7137690064039939e+00 0 0 0
491 1 4 -2.5777826528491798e-01 4.5469697477356119e+00 1.3256186908560053e+01 8.1584643690433154e+00 0 0 0
492 1 4 -2.9543346479529159e-01 3.4387037489961592e+00 2.1766130509395012e+01 1.9250569069871699e+00 0 0 0
495 1 4 -2.3796828695214500e-01 4.5456135821553980e+00 1.2904603732378432e+00 1.0975281612559215e+01 0 0 0
496 1 4 -2.5191185954239936e-01 3.8335031776120490e+00 9.0364311241893667e+00 3.1164531009183656e+00 0 0 0
497 1 4 -2.3021431615315360e-01 7.0892067580560525e+00 1.0839492071158832e+01 1.1661568790836302e+01 0 0 0
501 1 4 -2.5645673562357740e-01 7.4199519345132678e+00 2.0277187758945562e+01 1.4653153084586520e-01 0 0 1
507 1 4 -2.3780287397217767e-01 5.2438580497447695e+00 1.3265365568003947e+01 6.0006714955897618e+00 0 0 0
511 1 4 -1.8791140088387626e-01 4.2765495095504393e+00 1.0514672274398889e+00 8.7621857878846612e+00 0 0 0
513 1 4 -2.3811277028007860e-01 1.4202320820570984e+00 1.0806514999143795e+01 1.1850794399677664e+01 0 0 0
517 1 4 -2.5770466951776638e-01 5.5687493698911217e+00 2.4129333057037197e+01 8.9493661547964649e+00 0 0 0
522 1 4 -2.3256871838438145e-01 5.2876542220096301e+00 1.2348968896317746e+01 2.7215945756360225e+00 0 0 0
523 1 4 -3.5860272221512868e-01 5.7620890063029409e+00 1.7924885385283691e+01 9.4645417734102395e+00 0 0 0
526 1 4 -3.5570082873079434e-01 -1.3896880465308348e-03 2.9195248686737747e+00 4.9369187290949048e+00 0 0 0
527 1 4 -2.2690423802870835e-01 7.8891938000405055e+00 5.6915968992189381e+00 1.1618696839159387e+01 0 0 0
529 1 4 -2.0156459059561380e-01 2.8174844063216291e+00 1.2298029162216096e+01 1.0971673544297783e+01 0 0 0
533 1 4 -2.7685147350604467e-01 6.9810936222529074e+00 2.2392594504369693e+01 8.9836674929534794e+00 0 0 0
539 1 4 -2.4679508346133780e-01 4.5472045745760461e+00 1.6042093836362465e+01 9.3870381195181771e+00 0 0 0
543 1 4 -2.5613123110461722e-01 6.0865120200250153e+00 4.4723268992200413e+00 1.1638374852835948e+01 0 0 0
548 1 4 -2.3623776038308117e-01 6.1745983126014545e+00 1.9136020298344317e+01 5.3939386288127515e+00 0 0 0
552 1 4 -2.9706585394396090e-01 6.7439844794287005e+00 7.7721335496629456e+00 6.7326559688887615e+00 0 0 0
554 1 4 -1.8452707905312962e-01 6.6364219831208988e+00 1.3752124054645742e+01 -5.2347524882545640e-02 0 0 0
558 1 4 -3.1569751881699354e-01 5.0307409391269902e+00 2.0037061809650281e+00 6.3262334869608488e+00 0 0 0
564 1 4 -2.8815512449898872e-01 5.9069536885109120e+00 2.0704989486416491e+01 6.9332109188740274e+00 0 0 0
570 1 4 -2.5356236031395085e-01 4.4240216926498146e+00 1.4639545661604915e+01 1.1503413034982778e+01 0 0 -1
574 1 4 -2.2440303089294716e-01 5.4484351430590339e+00 4.5932404253879089e-01 4.7547094789498399e+00 0 0 0
8 1 1 5.2762205094572363e-02 8.8915235564467210e+00 1.0212999063047336e+01 5.1188486473598145e+00 0 0 0
11 1 1 4.7800808515176832e-02 8.7130519711651484e+00 1.5558795571002637e+01 6.9876145279904387e+00 0 0 0
15 1 1 5.1039879774803995e-02 8.2333526393139014e+00 2.2254857619586073e+00 7.9189753925570727e+00 0 0 0
27 1 1 6.3987521755826171e-02 9.4480314774745171e+00 1.5634631252525779e+01 9.2847521232754708e+00 0 0 0
31 1 1 5.4700695090522708e-02 9.8900047646255516e+00 2.1511923929926722e+00 9.6769388870130690e+00 0 0 0
36 1 1 5.1448136504706005e-02 8.8769228942820462e+00 2.3579557532718177e+01 2.7973456182895520e+00 0 0 0
40 1 1 6.2906040314344269e-02 8.9228482052053462e+00 9.8858364732096327e+00 1.9238124792250204e+00 0 0 0