ITEM: TIMESTEP
0
ITEM: NUMBER OF ATOMS
576
ITEM: BOX BOUNDS xy xz yz pp pp pp
-3.8734541101000000e+00 1.7704000473000001e+01 0.0000000000000000e+00
0.0000000000000000e+00 2.5111999511699999e+01 -3.8734541101000000e+00
0.0000000000000000e+00 1.2813326682700000e+01 0.0000000000000000e+00
ITEM: ATOMS id type xs ys zs
1 1 0.221334 0.317078 0.86788
2 1 0.778666 0.682922 0.13212
3 1 0.028666 0.567078 0.63212
4 1 0.471334 0.932922 0.36788
5 1 0.221334 0.817078 0.86788
6 1 0.778666 0.182922 0.13212
7 1 0.028666 0.0670781 0.63212
8 1 0.471334 0.432922 0.36788
9 1 0.721334 0.317078 0.86788
10 1 0.278666 0.682922 0.13212
11 1 0.528666 0.567078 0.63212
12 1 0.971334 0.932922 0.36788
13 1 0.721334 0.817078 0.86788
14 1 0.278666 0.182922 0.13212
15 1 0.528666 0.0670781 0.63212
16 1 0.971334 0.432922 0.36788
17 1 0.155142 0.317356 0.682364
18 1 0.844858 0.682644 0.317636
19 1 0.0948578 0.567356 0.817636
20 1 0.405142 0.932644 0.182364
21 1 0.155142 0.817356 0.682364
22 1 0.844858 0.182644 0.317636
23 1 0.0948578 0.0673561 0.817636
24 1 0.405142 0.432644 0.182364
25 1 0.655142 0.317356 0.682364
26 1 0.344858 0.682644 0.317636
27 1 0.594858 0.567356 0.817636
28 1 0.905142 0.932644 0.182364
29 1 0.655142 0.817356 0.682364
30 1 0.344858 0.182644 0.317636
31 1 0.594858 0.067356 0.817636
32 1 0.905142 0.432644 0.182364
33 1 0.275339 0.256251 0.692511
34 1 0.724661 0.743749 0.307489
35 1 0.974661 0.506251 0.807489
36 1 0.525339 0.993749 0.192511
37 1 0.275339 0.756251 0.692511
38 1 0.724661 0.243749 0.307489
39 1 0.974661 0.00625062 0.807489
40 1 0.525339 0.493749 0.192511
41 1 0.775339 0.256251 0.692511
42 1 0.224661 0.743749 0.307489
43 1 0.474661 0.506251 0.807489
44 1 0.025339 0.993749 0.192511
45 1 0.775339 0.756251 0.692511
46 1 0.224661 0.243749 0.307489
47 1 0.474661 0.00625062 0.807489
48 1 0.025339 0.493749 0.192511
49 1 0.297342 0.278621 0.8761
50 1 0.702658 0.721379 0.1239
51 1 0.952658 0.528621 0.6239
52 1 0.547342 0.971379 0.3761
53 1 0.297342 0.778621 0.8761
54 1 0.702658 0.221379 0.1239
55 1 0.952658 0.0286209 0.6239
56 1 0.547342 0.471379 0.3761
57 1 0.797342 0.278621 0.8761
58 1 0.202658 0.721379 0.1239
59 1 0.452658 0.528621 0.6239
60 1 0.0473416 0.971379 0.3761
61 1 0.797342 0.778621 0.8761
62 1 0.202658 0.221379 0.1239
63 1 0.452658 0.0286209 0.6239
64 1 0.0473416 0.471379 0.3761
65 1 0.333455 0.309194 0.722076
66 1 0.666545 0.690806 0.277924
67 1 0.916545 0.559194 0.777924
68 1 0.583455 0.940806 0.222076
69 1 0.333455 0.809194 0.722076
70 1 0.666545 0.190806 0.277924
71 1 0.916545 0.0591941 0.777924
72 1 0.583455 0.440806 0.222076
73 1 0.833455 0.309194 0.722076
74 1 0.166545 0.690806 0.277924
75 1 0.416545 0.559194 0.777924
76 1 0.0834545 0.940806 0.222076
77 1 0.833455 0.809194 0.722076
78 1 0.166545 0.190806 0.277924
79 1 0.416545 0.0591941 0.777924
80 1 0.0834545 0.440806 0.222076
81 1 0.215481 0.368791 0.713445
82 1 0.784519 0.631209 0.286555
83 1 0.0345187 0.618791 0.786555
84 1 0.465481 0.881209 0.213445
85 1 0.215481 0.868791 0.713445
86 1 0.784519 0.131209 0.286555
87 1 0.0345187 0.118791 0.786555
88 1 0.465481 0.381209 0.213445
89 1 0.715481 0.368791 0.713445
90 1 0.284519 0.631209 0.286555
91 1 0.534519 0.618791 0.786555
92 1 0.965481 0.881209 0.213445
93 1 0.715481 0.868791 0.713445
94 1 0.284519 0.131209 0.286555
95 1 0.534519 0.118791 0.786555
96 1 0.965481 0.381209 0.213445
97 2 0.207242 0.321399 0.943583
98 2 0.792758 0.678601 0.0564171
99 2 0.0427576 0.571399 0.556417
100 2 0.457242 0.928601 0.443583
101 2 0.207242 0.821399 0.943583
102 2 0.792758 0.178601 0.0564171
103 2 0.0427576 0.071399 0.556417
104 2 0.457242 0.428601 0.443583
105 2 0.707242 0.321399 0.943583
106 2 0.292758 0.678601 0.0564171
107 2 0.542758 0.571399 0.556417
108 2 0.957242 0.928601 0.443583
109 2 0.707242 0.821399 0.943583
110 2 0.292758 0.178601 0.0564171
111 2 0.542758 0.071399 0.556417
112 2 0.957242 0.428601 0.443583
113 2 0.0967603 0.328028 0.626897
114 2 0.90324 0.671972 0.373103
115 2 0.15324 0.578028 0.873103
116 2 0.34676 0.921972 0.126897
117 2 0.0967603 0.828028 0.626897
118 2 0.90324 0.171972 0.373103
119 2 0.15324 0.0780278 0.873103
120 2 0.34676 0.421972 0.126897
121 2 0.59676 0.328028 0.626897
122 2 0.40324 0.671972 0.373103
123 2 0.65324 0.578028 0.873103
124 2 0.84676 0.921972 0.126897
125 2 0.59676 0.828028 0.626897
126 2 0.40324 0.171972 0.373103
127 2 0.65324 0.0780278 0.873103
128 2 0.84676 0.421972 0.126897
129 2 0.294664 0.227069 0.642574
130 2 0.705336 0.772931 0.357426
131 2 0.955336 0.477069 0.857426
132 2 0.544664 0.0229308 0.142574
133 2 0.294664 0.727069 0.642574
134 2 0.705336 0.272931 0.357426
135 2 0.955336 0.977069 0.857426
136 2 0.544664 0.522931 0.142574
137 2 0.794664 0.227069 0.642574
138 2 0.205336 0.772931 0.357426
139 2 0.455336 0.477069 0.857426
140 2 0.0446637 0.0229308 0.142574
141 2 0.794664 0.727069 0.642574
142 2 0.205336 0.272931 0.357426
143 2 0.455336 0.977069 0.857426
144 2 0.0446637 0.522931 0.142574
145 2 0.319927 0.263849 0.957956
146 2 0.680073 0.736151 0.0420438
147 2 0.930073 0.513849 0.542044
148 2 0.569927 0.986151 0.457956
149 2 0.319927 0.763849 0.957956
150 2 0.680073 0.236151 0.0420438
151 2 0.930073 0.0138488 0.542044
152 2 0.569927 0.486151 0.457956
153 2 0.819927 0.263849 0.957956
154 2 0.180073 0.736151 0.0420438
155 2 0.430073 0.513849 0.542044
156 2 0.0699269 0.986151 0.457956
157 2 0.819927 0.763849 0.957956
158 2 0.180073 0.236151 0.0420438
159 2 0.430073 0.0138488 0.542044
160 2 0.069927 0.486151 0.457956
161 2 0.38463 0.307635 0.689486
162 2 0.61537 0.692365 0.310514
163 2 0.86537 0.557635 0.810514
164 2 0.63463 0.942365 0.189486
165 2 0.38463 0.807635 0.689486
166 2 0.61537 0.192365 0.310514
167 2 0.86537 0.0576347 0.810514
168 2 0.63463 0.442365 0.189486
169 2 0.88463 0.307635 0.689486
170 2 0.11537 0.692365 0.310514
171 2 0.36537 0.557635 0.810514
172 2 0.13463 0.942365 0.189486
173 2 0.88463 0.807635 0.689486
174 2 0.11537 0.192365 0.310514
175 2 0.36537 0.0576347 0.810514
176 2 0.13463 0.442365 0.189486
177 2 0.187525 0.406899 0.678594
178 2 0.812475 0.593101 0.321406
179 2 0.0624754 0.656899 0.821406
180 2 0.437525 0.843101 0.178594
181 2 0.187525 0.906899 0.678594
182 2 0.812475 0.0931014 0.321406
183 2 0.0624754 0.156899 0.821406
184 2 0.437525 0.343101 0.178594
185 2 0.687525 0.406899 0.678594
186 2 0.312475 0.593101 0.321406
187 2 0.562475 0.656899 0.821406
188 2 0.937525 0.843101 0.178594
189 2 0.687525 0.906899 0.678594
190 2 0.312475 0.0931014 0.321406
191 2 0.562475 0.156899 0.821406
192 2 0.937525 0.343101 0.178594
193 3 0.15193 0.296196 0.78589
194 3 0.84807 0.703804 0.21411
195 3 0.0980697 0.546196 0.71411
196 3 0.40193 0.953804 0.28589
197 3 0.15193 0.796196 0.78589
198 3 0.84807 0.203804 0.21411
199 3 0.0980697 0.0461959 0.71411
200 3 0.40193 0.453804 0.28589
201 3 0.65193 0.296196 0.78589
202 3 0.34807 0.703804 0.21411
203 3 0.59807 0.546196 0.71411
204 3 0.90193 0.953804 0.28589
205 3 0.65193 0.796196 0.78589
206 3 0.34807 0.203804 0.21411
207 3 0.59807 0.0461959 0.71411
208 3 0.90193 0.453804 0.28589
209 3 0.0715963 0.303646 0.804696
210 3 0.928404 0.696354 0.195304
211 3 0.178404 0.553646 0.695304
212 3 0.321596 0.946354 0.304696
213 3 0.0715963 0.803646 0.804696
214 3 0.928404 0.196354 0.195304
215 3 0.178404 0.0536463 0.695304
216 3 0.321596 0.446354 0.304696
217 3 0.571596 0.303646 0.804696
218 3 0.428404 0.696354 0.195304
219 3 0.678404 0.553646 0.695304
220 3 0.821596 0.946354 0.304696
221 3 0.571596 0.803646 0.804696
222 3 0.428404 0.196354 0.195304
223 3 0.678404 0.0536463 0.695304
224 3 0.821596 0.446354 0.304696
225 3 0.194672 0.275473 0.637211
226 3 0.805328 0.724527 0.362789
227 3 0.0553277 0.525473 0.862789
228 3 0.444672 0.974527 0.137211
229 3 0.194672 0.775473 0.637211
230 3 0.805328 0.224527 0.362789
231 3 0.0553277 0.0254732 0.862789
232 3 0.444672 0.474527 0.137211
233 3 0.694672 0.275473 0.637211
234 3 0.305328 0.724527 0.362789
235 3 0.555328 0.525473 0.862789
236 3 0.944672 0.974527 0.137211
237 3 0.694672 0.775473 0.637211
238 3 0.305328 0.224527 0.362789
239 3 0.555328 0.0254732 0.862789
240 3 0.944672 0.474527 0.137211
241 3 0.152024 0.253412 0.530051
242 3 0.847976 0.746588 0.469949
243 3 0.097976 0.503412 0.969949
244 3 0.402024 0.996588 0.0300509
245 3 0.152024 0.753412 0.530051
246 3 0.847976 0.246588 0.469949
247 3 0.097976 0.00341214 0.969949
248 3 0.402024 0.496588 0.0300509
249 3 0.652024 0.253412 0.530051
250 3 0.347976 0.746588 0.469949
251 3 0.597976 0.503412 0.969949
252 3 0.902024 0.996588 0.0300509
253 3 0.652024 0.753412 0.530051
254 3 0.347976 0.246588 0.469949
255 3 0.597976 0.00341214 0.969949
256 3 0.902024 0.496588 0.0300509
257 3 0.283598 0.234138 0.798768
258 3 0.716402 0.765862 0.201232
259 3 0.966402 0.484138 0.701232
260 3 0.533598 0.015862 0.298768
261 3 0.283598 0.734138 0.798768
262 3 0.716402 0.265862 0.201232
263 3 0.966402 0.984138 0.701232
264 3 0.533598 0.515862 0.298768
265 3 0.783598 0.234138 0.798768
266 3 0.216402 0.765862 0.201232
267 3 0.466402 0.484138 0.701232
268 3 0.0335978 0.015862 0.298768
269 3 0.783598 0.734138 0.798768
270 3 0.216402 0.265862 0.201232
271 3 0.466402 0.984138 0.701232
272 3 0.0335978 0.515862 0.298768
273 3 0.221632 0.194381 0.80562
274 3 0.778368 0.805619 0.19438
275 3 0.0283685 0.444381 0.69438
276 3 0.471632 0.0556192 0.30562
277 3 0.221632 0.694381 0.80562
278 3 0.778368 0.305619 0.19438
279 3 0.0283685 0.944381 0.69438
280 3 0.471632 0.555619 0.30562
281 3 0.721632 0.194381 0.80562
282 3 0.278368 0.805619 0.19438
283 3 0.528368 0.444381 0.69438
284 3 0.971632 0.0556192 0.30562
285 3 0.721632 0.694381 0.80562
286 3 0.278368 0.305619 0.19438
287 3 0.528368 0.944381 0.69438
288 3 0.971632 0.555619 0.30562
289 3 0.36022 0.304325 0.837686
290 3 0.63978 0.695675 0.162314
291 3 0.88978 0.554325 0.662314
292 3 0.61022 0.945675 0.337686
293 3 0.36022 0.804325 0.837686
294 3 0.63978 0.195675 0.162314
295 3 0.88978 0.0543252 0.662314
296 3 0.61022 0.445675 0.337686
297 3 0.86022 0.304325 0.837686
298 3 0.13978 0.695675 0.162314
299 3 0.38978 0.554325 0.662314
300 3 0.11022 0.945675 0.337686
301 3 0.86022 0.804325 0.837686
302 3 0.13978 0.195675 0.162314
303 3 0.38978 0.0543252 0.662314
304 3 0.11022 0.445675 0.337686
305 3 0.397648 0.352212 0.899438
306 3 0.602352 0.647788 0.100562
307 3 0.852352 0.602212 0.600562
308 3 0.647648 0.897788 0.399438
309 3 0.397648 0.852212 0.899438
310 3 0.602352 0.147788 0.100562
311 3 0.852352 0.102212 0.600562
312 3 0.647648 0.397788 0.399438
313 3 0.897648 0.352212 0.899438
314 3 0.102352 0.647788 0.100562
315 3 0.352352 0.602212 0.600562
316 3 0.147648 0.897788 0.399438
317 3 0.897648 0.852212 0.899438
318 3 0.102352 0.147788 0.100562
319 3 0.352352 0.102212 0.600562
320 3 0.147648 0.397788 0.399438
321 3 0.283516 0.355349 0.6744
322 3 0.716484 0.644651 0.3256
323 3 0.966484 0.605349 0.8256
324 3 0.533516 0.894651 0.1744
325 3 0.283516 0.855349 0.6744
326 3 0.716484 0.144651 0.3256
327 3 0.966484 0.105349 0.8256
328 3 0.533516 0.394651 0.1744
329 3 0.783516 0.355349 0.6744
330 3 0.216484 0.644651 0.3256
331 3 0.466484 0.605349 0.8256
332 3 0.0335157 0.894651 0.1744
333 3 0.783516 0.855349 0.6744
334 3 0.216484 0.144651 0.3256
335 3 0.466484 0.105349 0.8256
336 3 0.0335157 0.394651 0.1744
337 3 0.326724 0.402851 0.644545
338 3 0.673276 0.597149 0.355455
339 3 0.923276 0.652851 0.855455
340 3 0.576724 0.847149 0.144545
341 3 0.326724 0.902851 0.644545
342 3 0.673276 0.0971493 0.355455
343 3 0.923276 0.152851 0.855455
344 3 0.576724 0.347149 0.144545
345 3 0.826724 0.402851 0.644545
346 3 0.173276 0.597149 0.355455
347 3 0.423276 0.652851 0.855455
348 3 0.0767245 0.847149 0.144545
349 3 0.826724 0.902851 0.644545
350 3 0.173276 0.0971493 0.355455
351 3 0.423276 0.152851 0.855455
352 3 0.0767245 0.347149 0.144545
353 3 0.239554 0.36984 0.830218
354 3 0.760446 0.63016 0.169781
355 3 0.0104459 0.61984 0.669782
356 3 0.489554 0.88016 0.330218
357 3 0.239554 0.86984 0.830218
358 3 0.760446 0.13016 0.169781
359 3 0.0104459 0.11984 0.669782
360 3 0.489554 0.38016 0.330219
361 3 0.739554 0.36984 0.830219
362 3 0.260446 0.63016 0.169781
363 3 0.510446 0.61984 0.669781
364 3 0.989554 0.88016 0.330218
365 3 0.739554 0.86984 0.830219
366 3 0.260446 0.13016 0.169781
367 3 0.510446 0.11984 0.669781
368 3 0.989554 0.38016 0.330219
369 3 0.207292 0.417925 0.874761
370 3 0.792708 0.582075 0.125239
371 3 0.0427076 0.667925 0.625239
372 3 0.457292 0.832075 0.374761
373 3 0.207292 0.917925 0.874761
374 3 0.792708 0.0820754 0.125239
375 3 0.0427076 0.167925 0.625239
376 3 0.457292 0.332075 0.374761
377 3 0.707292 0.417925 0.874761
378 3 0.292708 0.582075 0.125239
379 3 0.542708 0.667925 0.625239
380 3 0.957292 0.832075 0.374761
381 3 0.707292 0.917925 0.874761
382 3 0.292708 0.0820754 0.125239
383 3 0.542708 0.167925 0.625239
384 3 0.957292 0.332075 0.374761
385 4 0.0104474 0.308204 0.72639
386 4 0.989553 0.691796 0.27361
387 4 0.239553 0.558204 0.77361
388 4 0.260447 0.941796 0.22639
389 4 0.0104474 0.808204 0.72639
390 4 0.989553 0.191796 0.27361
391 4 0.239553 0.058204 0.77361
392 4 0.260447 0.441796 0.22639
393 4 0.510447 0.308204 0.72639
394 4 0.489553 0.691796 0.27361
395 4 0.739553 0.558204 0.77361
396 4 0.760447 0.941796 0.22639
397 4 0.510447 0.808204 0.72639
398 4 0.489553 0.191796 0.27361
399 4 0.739553 0.058204 0.77361
400 4 0.760447 0.441796 0.22639
401 4 0.0675056 0.298634 0.897514
402 4 0.932494 0.701366 0.102485
403 4 0.182494 0.548634 0.602485
404 4 0.317506 0.951366 0.397515
405 4 0.0675056 0.798634 0.897514
406 4 0.932494 0.201366 0.102485
407 4 0.182494 0.0486338 0.602486
408 4 0.317506 0.451366 0.397515
409 4 0.567506 0.298634 0.897515
410 4 0.432494 0.701366 0.102485
411 4 0.682494 0.548634 0.602485
412 4 0.817506 0.951366 0.397515
413 4 0.567506 0.798634 0.897515
414 4 0.432494 0.201366 0.102485
415 4 0.682494 0.0486338 0.602485
416 4 0.817506 0.451366 0.397515
417 4 0.184066 0.214691 0.496321
418 4 0.815934 0.785309 0.503679
419 4 0.0659336 0.464691 0.00367875
420 4 0.434066 0.0353088 0.996321
421 4 0.184066 0.714691 0.496321
422 4 0.815934 0.285309 0.503679
423 4 0.0659336 0.964691 0.00367875
424 4 0.434066 0.535309 0.996321
425 4 0.684066 0.214691 0.496321
426 4 0.315934 0.785309 0.503679
427 4 0.565934 0.464691 0.00367874
428 4 0.934066 0.0353088 0.996321
429 4 0.684066 0.714691 0.496321
430 4 0.315934 0.285309 0.503679
431 4 0.565934 0.964691 0.00367875
432 4 0.934066 0.535309 0.996321
433 4 0.0885685 0.275513 0.477328
434 4 0.911432 0.724487 0.522672
435 4 0.161432 0.525513 0.0226724
436 4 0.338568 0.974487 0.977328
437 4 0.0885685 0.775513 0.477328
438 4 0.911432 0.224487 0.522672
439 4 0.161432 0.0255132 0.0226724
440 4 0.338568 0.474487 0.977328
441 4 0.588568 0.275513 0.477328
442 4 0.411432 0.724487 0.522672
443 4 0.661432 0.525513 0.0226724
444 4 0.838568 0.974487 0.977328
445 4 0.588568 0.775513 0.477328
446 4 0.411432 0.224487 0.522672
447 4 0.661432 0.0255132 0.0226724
448 4 0.838568 0.474487 0.977328
449 4 0.19322 0.163636 0.727528
450 4 0.80678 0.836364 0.272472
451 4 0.0567805 0.413636 0.772472
452 4 0.44322 0.0863644 0.227528
453 4 0.19322 0.663636 0.727528
454 4 0.80678 0.336364 0.272472
455 4 0.0567805 0.913636 0.772472
456 4 0.44322 0.586364 0.227528
457 4 0.69322 0.163636 0.727528
458 4 0.30678 0.836364 0.272472
459 4 0.55678 0.413636 0.772472
460 4 0.94322 0.0863644 0.227528
461 4 0.69322 0.663636 0.727528
462 4 0.30678 0.336364 0.272472
463 4 0.55678 0.913636 0.772472
464 4 0.94322 0.586364 0.227528
465 4 0.20499 0.189871 0.891953
466 4 0.79501 0.810129 0.108047
467 4 0.0450105 0.439871 0.608047
468 4 0.45499 0.0601295 0.391953
469 4 0.204989 0.689871 0.891953
470 4 0.79501 0.310129 0.108047
471 4 0.0450105 0.939871 0.608047
472 4 0.45499 0.560129 0.391953
473 4 0.70499 0.189871 0.891953
474 4 0.29501 0.810129 0.108047
475 4 0.54501 0.439871 0.608047
476 4 0.95499 0.0601295 0.391953
477 4 0.70499 0.689871 0.891953
478 4 0.295011 0.310129 0.108047
479 4 0.54501 0.939871 0.608047
480 4 0.95499 0.560129 0.391953
481 4 0.429535 0.38738 0.855301
482 4 0.570465 0.61262 0.144699
483 4 0.820465 0.63738 0.644699
484 4 0.679535 0.86262 0.355301
485 4 0.429535 0.88738 0.855301
486 4 0.570465 0.11262 0.144699
487 4 0.820465 0.13738 0.644699
488 4 0.679535 0.36262 0.355301
489 4 0.929535 0.38738 0.855301
490 4 0.070465 0.61262 0.144699
491 4 0.320465 0.63738 0.644699
492 4 0.179535 0.86262 0.355301
493 4 0.929535 0.88738 0.855301
494 4 0.070465 0.11262 0.144699
495 4 0.320465 0.13738 0.644699
496 4 0.179535 0.36262 0.355301
497 4 0.398911 0.355183 0.995492
498 4 0.601089 0.644817 0.00450816
499 4 0.851089 0.605183 0.504508
500 4 0.648911 0.894817 0.495492
501 4 0.398911 0.855183 0.995492
502 4 0.601089 0.144817 0.00450817
503 4 0.851089 0.105183 0.504508
504 4 0.648911 0.394817 0.495492
505 4 0.898911 0.355183 0.995492
506 4 0.101089 0.644817 0.00450816
507 4 0.351089 0.605183 0.504508
508 4 0.148911 0.894817 0.495492
509 4 0.898911 0.855183 0.995492
510 4 0.101089 0.144817 0.00450816
511 4 0.351089 0.105183 0.504508
512 4 0.148911 0.394817 0.495492
513 4 0.298294 0.44964 0.643562
514 4 0.701706 0.55036 0.356438
515 4 0.951706 0.69964 0.856438
516 4 0.548294 0.80036 0.143562
517 4 0.298294 0.94964 0.643562
518 4 0.701706 0.0503604 0.356438
519 4 0.951706 0.19964 0.856438
520 4 0.548294 0.30036 0.143562
521 4 0.798294 0.44964 0.643562
522 4 0.201706 0.55036 0.356438
523 4 0.451706 0.69964 0.856438
524 4 0.0482939 0.80036 0.143562
525 4 0.798294 0.94964 0.643562
526 4 0.201706 0.0503604 0.356438
527 4 0.451706 0.19964 0.856438
528 4 0.0482939 0.30036 0.143562
529 4 0.387291 0.393392 0.61388
530 4 0.612709 0.606608 0.38612
531 4 0.862709 0.643392 0.88612
532 4 0.637291 0.856608 0.11388
533 4 0.387291 0.893392 0.61388
534 4 0.612709 0.106608 0.38612
535 4 0.862709 0.143392 0.88612
536 4 0.637291 0.356608 0.11388
537 4 0.887291 0.393392 0.61388
538 4 0.112709 0.606608 0.38612
539 4 0.362709 0.643392 0.88612
540 4 0.137291 0.856608 0.11388
541 4 0.887291 0.893392 0.61388
542 4 0.112709 0.106608 0.38612
543 4 0.362709 0.143392 0.88612
544 4 0.137291 0.356608 0.11388
545 4 0.197813 0.461764 0.824095
546 4 0.802187 0.538236 0.175905
547 4 0.0521874 0.711764 0.675905
548 4 0.447813 0.788236 0.324095
549 4 0.197813 0.961764 0.824095
550 4 0.802187 0.038236 0.175905
551 4 0.0521874 0.211764 0.675905
552 4 0.447813 0.288236 0.324095
553 4 0.697813 0.461764 0.824095
554 4 0.302187 0.538236 0.175905
555 4 0.552187 0.711764 0.675905
556 4 0.947813 0.788236 0.324095
557 4 0.697813 0.961764 0.824095
558 4 0.302187 0.038236 0.175905
559 4 0.552187 0.211764 0.675905
560 4 0.947813 0.288236 0.324095
561 4 0.19825 0.41411 0.965592
562 4 0.80175 0.58589 0.0344081
563 4 0.0517504 0.66411 0.534408
564 4 0.44825 0.83589 0.465592
565 4 0.19825 0.91411 0.965592
566 4 0.80175 0.0858897 0.0344081
567 4 0.0517504 0.16411 0.534408
568 4 0.44825 0.33589 0.465592
569 4 0.69825 0.41411 0.965592
570 4 0.30175 0.58589 0.0344081
571 4 0.55175 0.66411 0.534408
572 4 0.94825 0.83589 0.465592
573 4 0.69825 0.91411 0.965592
574 4 0.30175 0.0858897 0.0344081
575 4 0.55175 0.16411 0.534408
576 4 0.94825 0.33589 0.465592
ITEM: TIMESTEP
1000
ITEM: NUMBER OF ATOMS
576
ITEM: BOX BOUNDS xy xz yz pp pp pp
-5.7308360996240140e+00 1.8932010630184017e+01 -2.6438328038183462e-01
-1.1836316169742505e+00 2.6081055610991882e+01 -4.2384426620582092e+00
-6.2291286871915208e-01 1.3436239551419153e+01 -2.1457551768242211e-01
ITEM: ATOMS id type xs ys zs
1 1 0.230372 0.313932 0.884006
3 1 0.0149875 0.570021 0.623433
5 1 0.255 0.825888 0.874764
7 1 0.00916812 0.058065 0.608898
10 1 0.249086 0.68651 0.140918
14 1 0.26804 0.184895 0.124529
17 1 0.157395 0.298822 0.727471
19 1 0.0778009 0.557997 0.78952
20 1 0.432509 0.946772 0.207924
21 1 0.175747 0.802454 0.729406
23 1 0.0801313 0.0482384 0.76786
24 1 0.418321 0.4487 0.224451
26 1 0.315751 0.685474 0.305166
30 1 0.339096 0.195536 0.286011
33 1 0.25782 0.24607 0.718414
37 1 0.281809 0.764109 0.714517
42 1 0.220714 0.73951 0.313179
44 1 0.0363236 0.999528 0.204358
46 1 0.231274 0.240485 0.289627
48 1 0.04122 0.495033 0.227874
49 1 0.289967 0.278827 0.879945
53 1 0.326268 0.798976 0.868927
58 1 0.187395 0.718405 0.145642
60 1 0.0600899 0.976545 0.366835
62 1 0.202213 0.213168 0.13207
64 1 0.0646324 0.46567 0.383845
65 1 0.301618 0.295165 0.720577
69 1 0.313611 0.814183 0.705994
74 1 0.166455 0.690367 0.28526
75 1 0.407144 0.557024 0.769282
76 1 0.0875543 0.953778 0.223247
78 1 0.193345 0.188806 0.281688
79 1 0.416075 0.0664505 0.769943
80 1 0.0848185 0.447351 0.236602
81 1 0.204267 0.34665 0.729217
83 1 0.0392077 0.606753 0.779005
85 1 0.208762 0.856166 0.718051
87 1 0.0349741 0.0957685 0.769132
90 1 0.265158 0.637965 0.28022
94 1 0.296314 0.145468 0.280522
97 2 0.228463 0.322793 0.95844
99 2 0.0162333 0.577937 0.551665
101 2 0.25991 0.835838 0.950422
103 2 0.0131409 0.0681931 0.540657
106 2 0.246966 0.686082 0.0640957
110 2 0.271266 0.182618 0.0491855
113 2 0.104967 0.304668 0.681357
115 2 0.134237 0.563047 0.826973
116 2 0.37698 0.93762 0.165688
117 2 0.119229 0.800259 0.700436
119 2 0.134238 0.0546973 0.810823
120 2 0.365473 0.435918 0.183626
122 2 0.371425 0.67619 0.344476
126 2 0.393592 0.194722 0.324789
129 2 0.272174 0.217655 0.669792
133 2 0.299459 0.733531 0.680261
138 2 0.206891 0.768397 0.360424
139 2 0.429191 0.477831 0.830432
140 2 0.0511181 0.0278176 0.156805
142 2 0.219707 0.268702 0.340317
143 2 0.430285 0.990851 0.819786
144 2 0.05836 0.525202 0.183491
145 2 0.321048 0.267799 0.953957
149 2 0.362724 0.794321 0.942895
154 2 0.161234 0.733959 0.0749783
155 2 0.414139 0.508941 0.560799
156 2 0.0790372 0.990316 0.44089
158 2 0.17008 0.221745 0.0552346
159 2 0.410427 0.0319041 0.549237
160 2 0.0854372 0.472644 0.463135
161 2 0.344506 0.290681 0.690056
165 2 0.350527 0.812224 0.662269
170 2 0.125766 0.698647 0.320669
171 2 0.358611 0.556406 0.793826
172 2 0.136293 0.960277 0.200088
174 2 0.149077 0.190692 0.310143
175 2 0.367948 0.0632014 0.789698
176 2 0.124543 0.452119 0.203011
177 2 0.172416 0.378927 0.69804
179 2 0.0751065 0.635091 0.822949
181 2 0.172362 0.885598 0.678732
183 2 0.0666132 0.127846 0.805718
184 2 0.431685 0.366856 0.199638
186 2 0.293727 0.604785 0.31213
190 2 0.33168 0.115521 0.316829
193 3 0.157577 0.289874 0.82896
195 3 0.0759744 0.541876 0.68205
196 3 0.4333 0.961375 0.309941
197 3 0.191917 0.794738 0.834835
199 3 0.079861 0.0352051 0.665993
200 3 0.419236 0.464819 0.323562
202 3 0.3175 0.705622 0.206031
206 3 0.336212 0.210198 0.182064
209 3 0.0913546 0.309147 0.849663
211 3 0.146125 0.556584 0.665643
212 3 0.3672 0.948534 0.334518
213 3 0.131888 0.803847 0.87663
215 3 0.148023 0.0555448 0.652383
216 3 0.350241 0.456926 0.345899
218 3 0.3811 0.686629 0.178959
222 3 0.400562 0.192305 0.155293
225 3 0.179283 0.254959 0.675255
227 3 0.046963 0.517213 0.83252
229 3 0.202794 0.761986 0.677772
231 3 0.0539019 0.00578891 0.816496
234 3 0.290911 0.722704 0.360586
238 3 0.3114 0.237861 0.327928
241 3 0.161215 0.267439 0.569222
243 3 0.0849683 0.503731 0.94021
244 3 0.429124 0.0109434 0.0712799
245 3 0.174999 0.770783 0.56868
247 3 0.0785661 0.0081331 0.926101
248 3 0.421744 0.484532 0.0636034
250 3 0.348028 0.754523 0.429904
254 3 0.337596 0.236476 0.43759
257 3 0.27364 0.228428 0.818304
261 3 0.313992 0.748548 0.821462
266 3 0.207467 0.76562 0.222127
268 3 0.0452787 0.0201028 0.302562
270 3 0.209142 0.263083 0.191962
272 3 0.0542296 0.514512 0.327944
273 3 0.215043 0.197321 0.837036
275 3 0.00357799 0.451151 0.669273
277 3 0.264431 0.716681 0.860374
279 3 0.0214408 0.941354 0.656342
282 3 0.269201 0.798037 0.21466
286 3 0.26332 0.301631 0.180377
289 3 0.335977 0.304783 0.832004
293 3 0.357397 0.829799 0.807276
298 3 0.135802 0.691681 0.180853
299 3 0.38572 0.554275 0.663775
300 3 0.114407 0.953006 0.329003
302 3 0.159652 0.18049 0.176432
303 3 0.391747 0.0739858 0.666302
304 3 0.112315 0.437548 0.343983
305 3 0.406031 0.318094 0.905433
309 3 0.393036 0.873105 0.868862
314 3 0.0921928 0.655242 0.103345
315 3 0.357896 0.59944 0.606593
316 3 0.143806 0.90623 0.377352
318 3 0.101304 0.155476 0.0987738
319 3 0.340458 0.100606 0.587073
320 3 0.168101 0.412543 0.423933
321 3 0.258946 0.338752 0.67559
325 3 0.256674 0.851907 0.656268
330 3 0.208469 0.647382 0.32602
332 3 0.0474074 0.908959 0.174652
334 3 0.24419 0.149923 0.333876
336 3 0.0399523 0.405029 0.179514
337 3 0.305425 0.384423 0.66972
341 3 0.280937 0.902155 0.629003
346 3 0.162661 0.600169 0.320047
347 3 0.428022 0.649052 0.8282
348 3 0.0916178 0.861223 0.168033
350 3 0.205084 0.099188 0.331355
351 3 0.421439 0.157756 0.810387
352 3 0.0815153 0.356197 0.191238
353 3 0.232491 0.360267 0.832011
355 3 0.0160521 0.618729 0.669363
357 3 0.244168 0.872864 0.817638
359 3 0.00607805 0.105321 0.662776
362 3 0.238625 0.632118 0.172464
364 3 0.00529563 0.890873 0.328451
366 3 0.269597 0.133942 0.171719
369 3 0.194399 0.405197 0.857668
371 3 0.0565558 0.657521 0.63105
373 3 0.212204 0.91529 0.860929
375 3 0.0298566 0.151906 0.620915
378 3 0.280929 0.593122 0.137289
382 3 0.305119 0.0914958 0.134062
385 4 0.0309146 0.300605 0.792705
387 4 0.202664 0.552335 0.731596
388 4 0.311437 0.939183 0.267089
389 4 0.0728035 0.806554 0.814999
391 4 0.205469 0.0489503 0.716248
392 4 0.292891 0.454955 0.27784
401 4 0.0950484 0.327615 0.932683
403 4 0.147408 0.561101 0.578991
404 4 0.367819 0.949972 0.421039
405 4 0.140806 0.804439 0.966298
407 4 0.146713 0.0640301 0.565234
408 4 0.346498 0.464304 0.429868
410 4 0.369925 0.674596 0.0913022
414 4 0.398068 0.17377 0.0744702
417 4 0.187421 0.243472 0.513947
419 4 0.0626306 0.466506 0.973639
421 4 0.199224 0.746133 0.512545
423 4 0.0596931 0.972212 0.969608
426 4 0.325628 0.786476 0.478169
430 4 0.322172 0.274135 0.480805
433 4 0.114244 0.299224 0.533774
435 4 0.13716 0.529229 0.98848
436 4 0.369718 0.996347 0.0188026
437 4 0.126609 0.802575 0.538362
439 4 0.125896 0.0399997 0.967655
440 4 0.368383 0.456108 0.0273508
442 4 0.412136 0.744863 0.444514
446 4 0.375959 0.202525 0.481865
449 4 0.184075 0.163894 0.774123
451 4 0.0358809 0.426128 0.741842
453 4 0.228957 0.683188 0.802946
455 4 0.0466185 0.910362 0.723871
458 4 0.303602 0.821034 0.290631
462 4 0.277679 0.338105 0.240432
465 4 0.200311 0.205292 0.914275
467 4 0.0112148 0.439893 0.587479
469 4 0.261241 0.722287 0.945024
471 4 0.0364249 0.9399 0.578231
474 4 0.276722 0.802861 0.131203
478 4 0.283611 0.299362 0.105592
485 4 0.415026 0.909297 0.82928
490 4 0.0774605 0.61187 0.128517
491 4 0.339447 0.636067 0.648528
492 4 0.183758 0.884025 0.335834
494 4 0.0635261 0.124703 0.127343
495 4 0.304259 0.134951 0.606269
496 4 0.213707 0.38957 0.394779
497 4 0.417424 0.307487 0.993304
501 4 0.419555 0.867158 0.959725
506 4 0.0842406 0.663804 0.0158461
507 4 0.363045 0.603798 0.522288
508 4 0.138095 0.892369 0.459008
510 4 0.0883516 0.164476 0.0109412
511 4 0.338329 0.0935206 0.49875
512 4 0.174922 0.415488 0.512552
513 4 0.283514 0.426987 0.680052
517 4 0.263415 0.943008 0.660756
522 4 0.182278 0.558469 0.29635
524 4 0.0819983 0.820817 0.205378
526 4 0.219685 0.0633304 0.283452
528 4 0.0595497 0.31644 0.220977
529 4 0.369178 0.377501 0.670002
533 4 0.323314 0.904498 0.578406
538 4 0.111073 0.604365 0.352809
539 4 0.375073 0.656192 0.858151
540 4 0.135495 0.86364 0.118964
542 4 0.152067 0.0970838 0.36013
543 4 0.359346 0.158702 0.816972
544 4 0.139398 0.357602 0.171854
545 4 0.180613 0.440934 0.7986
547 4 0.0827942 0.694782 0.684736
549 4 0.181585 0.950261 0.80495
551 4 0.046946 0.190429 0.676102
552 4 0.410264 0.313384 0.315984
554 4 0.301183 0.555379 0.188235
558 4 0.319891 0.0505338 0.178458
561 4 0.179216 0.407101 0.934873
563 4 0.0516445 0.660324 0.541236
565 4 0.224214 0.91973 0.949479
567 4 0.0122375 0.155918 0.530199
570 4 0.278259 0.594239 0.0482103
574 4 0.301918 0.0892066 0.0446125
2 1 0.762938 0.676853 0.130444
4 1 0.498724 0.942412 0.376675
6 1 0.766461 0.176582 0.125057
8 1 0.482032 0.441378 0.382726
9 1 0.749559 0.326833 0.86809
11 1 0.506916 0.554602 0.640739
12 1 0.995706 0.940569 0.366178
13 1 0.728774 0.813454 0.871338
15 1 0.507254 0.0718392 0.635623
16 1 0.993371 0.433922 0.372044
18 1 0.82927 0.686558 0.291402
22 1 0.828855 0.196447 0.282843
25 1 0.672532 0.3032 0.723372
27 1 0.560702 0.549914 0.803778
28 1 0.938321 0.944639 0.19811
29 1 0.663553 0.789534 0.713321
31 1 0.567675 0.0613011 0.801085
32 1 0.930463 0.447052 0.207403
34 1 0.718529 0.730254 0.295732
35 1 0.970255 0.509214 0.786778
36 1 0.537433 0.998918 0.214785
38 1 0.731129 0.253329 0.266397
39 1 0.976598 0.995054 0.766717
40 1 0.520478 0.499084 0.218383
41 1 0.778371 0.258395 0.712264
43 1 0.449952 0.503928 0.791106
45 1 0.771223 0.739133 0.734715
47 1 0.455283 0.0158879 0.783033
50 1 0.69263 0.702304 0.132394
51 1 0.948224 0.537505 0.630642
52 1 0.563586 0.976766 0.379348
54 1 0.70196 0.212624 0.113768
55 1 0.945908 0.0229915 0.606
56 1 0.547314 0.47427 0.377572
57 1 0.816454 0.296411 0.862106
59 1 0.437091 0.52369 0.632216
61 1 0.793804 0.779307 0.888005
63 1 0.436691 0.0402817 0.625361
66 1 0.680693 0.675726 0.284448
67 1 0.929501 0.560293 0.776876
68 1 0.58648 0.949703 0.23747
70 1 0.677804 0.20706 0.261633
71 1 0.933284 0.0437847 0.759371
72 1 0.565721 0.44853 0.231516
73 1 0.813715 0.308914 0.704972
77 1 0.816721 0.785733 0.73844
82 1 0.790078 0.636275 0.280674
84 1 0.478924 0.898221 0.225354
86 1 0.778691 0.151748 0.28246
88 1 0.461456 0.399723 0.235884
89 1 0.708102 0.353343 0.707079
91 1 0.519157 0.6006 0.78418
92 1 0.988438 0.900278 0.216231
93 1 0.713751 0.835829 0.711267
95 1 0.52511 0.113217 0.788492
96 1 0.978003 0.398509 0.216679
98 2 0.762239 0.67035 0.0556731
100 2 0.493472 0.93669 0.448989
102 2 0.772096 0.163385 0.0544243
104 2 0.481769 0.439966 0.457297
105 2 0.759012 0.340885 0.943202
107 2 0.517041 0.55938 0.57069
108 2 0.98319 0.935204 0.432262
109 2 0.72876 0.830082 0.94163
111 2 0.517841 0.0764943 0.568042
112 2 0.984515 0.426101 0.443566
114 2 0.884443 0.686436 0.338148
118 2 0.879756 0.187011 0.327906
121 2 0.617111 0.300708 0.680107
123 2 0.615386 0.557063 0.852623
124 2 0.885672 0.933177 0.154437
125 2 0.606256 0.792425 0.665075
127 2 0.62213 0.0671203 0.847403