LAMMPS data file via write_data, version 15 Apr 2020, timestep = 80000

576 atoms
4 atom types

-2.5616032564291018e+00 2.0265603729428982e+01 xlo xhi
-4.5565865650729265e-01 2.5567658168206560e+01 ylo yhi
-3.4242433097554592e-01 1.3155751013675690e+01 zlo zhi
3.4207574345368146e+00 -2.2702780726698131e+00 -9.3800455373493363e-01 xy xz yz

Masses

1 12.0107
2 1.00794
3 14.0067
4 15.9994

Atoms # full

1 1 1 -2.3831803516234033e-02 1.8807017460280031e+00 6.5116343934789533e+00 1.0798365701000446e+01 0 0 0
3 1 1 -2.0614778256314734e-02 -2.9665291603617838e-01 1.7539289691181711e+01 8.1181392366539242e+00 0 0 0
5 1 1 -2.5527953797623973e-02 4.4982293810650038e+00 2.3046705208856022e+01 1.0579362750439028e+01 0 0 0
10 1 1 -2.8725987560674789e-02 4.5323240294157774e+00 1.5893736217931057e+01 2.6084242700852376e+00 0 0 0
14 1 1 -2.1897335304142687e-02 3.3474499098660622e+00 1.3851332176725140e+00 1.3960927694730099e+00 0 0 0
17 1 1 -2.8514629271651517e-02 1.3777103493449117e+00 7.8151072455712107e+00 8.9012992552199570e+00 0 0 0
19 1 1 -2.4511862037524545e-02 -2.2911335789807197e-02 1.9188801572426183e+01 9.7832914724530795e+00 0 0 0
20 1 1 -3.0970354305448457e-02 9.1566820221435101e+00 1.9967531047084428e+01 2.3698172141561296e+00 0 0 0
21 1 1 -2.6649427026418399e-02 3.7567241554330337e+00 2.2924914448836688e+01 8.3713536022998518e+00 0 0 0
23 1 1 -2.9743128926730773e-02 1.8202790560128825e+01 1.0577324749550621e+00 1.0194699241144367e+01 -1 0 0
24 1 1 -1.3777744096473792e-02 6.9564600150762939e+00 7.5231849946184708e+00 3.1332807337565471e+00 0 0 0
26 1 1 -2.9738082875188469e-02 6.1023043278456868e+00 1.4058627046483695e+01 2.5314183518586035e+00 0 0 0
30 1 1 -2.4959276312708074e-02 4.6338640013926007e+00 1.6117394298749197e+00 3.3487458893745634e+00 0 0 0
33 1 1 -2.4088026180533510e-02 3.4123235078596350e+00 6.5765008219159311e+00 8.1719047709889878e+00 0 0 0
37 1 1 -2.4039668225311620e-02 5.4333566064346925e+00 2.1117039910388399e+01 8.3163304402585929e+00 0 0 0
42 1 1 -2.4746720159094647e-02 5.6236628609667640e+00 1.4058033767671192e+01 4.9184285849220410e+00 0 0 0
46 1 1 -2.8579745158429145e-02 3.5310451398638767e+00 3.8226611892059754e+00 3.4663746069845347e+00 0 0 0
48 1 1 -1.8138082766448009e-02 -1.4200059336350557e+00 8.0958691632778841e+00 1.5730790707076403e+00 0 0 0
49 1 1 -2.0651973648216020e-02 3.1903084964851756e+00 5.7188302765577763e+00 1.0407127278594604e+01 0 0 0
53 1 1 -2.1831222386846087e-02 5.5477352284027681e+00 2.1863854198131072e+01 1.0600066157559539e+01 0 0 0
58 1 1 -2.4698688049737409e-02 4.2303841954428094e+00 1.5853837857518176e+01 4.1506211392755468e+00 0 0 0
62 1 1 -2.5875028483314702e-02 2.6764018828012719e+00 2.7776857564436557e+00 1.4769679644009146e+00 0 0 0
64 1 1 -1.8544442078851732e-02 2.4614823328632074e-01 9.6931808858166910e+00 2.0289670026841859e+00 0 0 0
65 1 1 -2.1989615000211214e-02 4.3081901456159235e+00 7.4736546739127379e+00 9.0732450834210780e+00 0 0 0
69 1 1 -2.1295802337542896e-02 6.5682727258965272e+00 2.2165309973183227e+01 8.4362648980066091e+00 0 0 0
74 1 1 -1.9587564162590387e-02 4.1571742296144345e+00 1.3490791162088476e+01 4.6238548679392073e+00 0 0 0
75 1 1 -1.6087480298737866e-02 6.3759155605903715e+00 1.3845524975458890e+01 1.1150993247180413e+01 0 0 0
76 1 1 -2.0108342333140562e-02 9.0381402701910663e-01 2.3873951947401373e+01 1.2945665082554305e+00 0 0 0
78 1 1 -2.4328763910561664e-02 2.1530204999506597e+00 3.0602017780359354e+00 3.7455821733442693e+00 0 0 0
79 1 1 -2.2056878182664896e-02 7.0745417820177998e+00 1.3114463243233900e+00 1.0768745504077980e+01 0 0 0
80 1 1 -2.2516096436419015e-02 -8.8265306832775936e-01 7.9148642663961120e+00 3.0498918981109151e+00 0 0 0
81 1 1 -2.5964939095009524e-02 2.2779734860363243e+00 8.6683252838059772e+00 9.7687219272703629e+00 0 0 0
83 1 1 -2.2500538496589423e-02 -1.5557404927239507e+00 1.9012094580187220e+01 9.4579529306968766e+00 0 0 0
85 1 1 -2.5761648383553486e-02 4.9391756635720405e+00 2.3988736264809280e+01 8.4628972508402747e+00 0 0 0
87 1 1 -2.7835746237914589e-02 1.7105914319284039e+01 1.8262772713750079e+00 1.1005879927594506e+01 -1 0 0
90 1 1 -2.2137173958344074e-02 4.7016321641425645e+00 1.3510021471224022e+01 2.2039898313769952e+00 0 0 0
94 1 1 -3.0255426773418578e-02 3.3106204652331170e+00 8.7818322622896949e-01 3.7229435567431350e+00 0 0 0
97 1 2 1.4652304824210846e-01 1.2839853013832219e+00 5.9644394473545894e+00 1.1581747462427877e+01 0 0 0
99 1 2 1.5509616036613103e-01 -1.1795473174531024e-01 1.7158669134800853e+01 7.1034533812996949e+00 0 0 0
101 1 2 1.4968455216624504e-01 4.1764132978196749e+00 2.3254117107674425e+01 1.1628796164174943e+01 0 0 0
106 1 2 1.4447265667206421e-01 4.2574028435003832e+00 1.6805358949179279e+01 2.0329533092023797e+00 0 0 0
110 1 2 1.5236969301322467e-01 3.2257564014670712e+00 9.9592590936262804e-01 3.7359509768469168e-01 0 0 0
113 1 2 1.5270843232458964e-01 5.4242089587912101e-01 8.3626782078785027e+00 8.3617738958912540e+00 0 0 0
115 1 2 1.5024215116651204e-01 2.8493217546699423e-01 2.0244104918136603e+01 9.8363386192824365e+00 0 0 0
116 1 2 1.4562069246498055e-01 8.1865549658773169e+00 1.9532025768960136e+01 2.0871603286206737e+00 0 0 0
117 1 2 1.5085614536222891e-01 2.9445418819187923e+00 2.3269231313233931e+01 7.7165632643462745e+00 0 0 0
119 1 2 1.4517054279497893e-01 -3.9709025991145750e+00 5.3559672558910609e-01 1.0909324501647909e+01 0 0 0
120 1 2 1.4654281803859739e-01 5.9926327587778783e+00 6.9766665480919521e+00 3.3982371016626089e+00 0 0 0
122 1 2 1.3353732070241076e-01 6.9450608120164379e+00 1.3746292649071629e+01 1.8053128163406251e+00 0 0 0
126 1 2 1.4795341794215133e-01 5.4568604243698200e+00 1.0470922057469512e+00 3.8496134701739750e+00 0 0 0
129 1 2 1.5207930021753305e-01 3.9789450990918116e+00 6.3666673766031341e+00 7.2260806857842450e+00 0 0 0
133 1 2 1.4640324032456550e-01 5.7099194360896526e+00 2.0229427692384792e+01 7.7502732079095322e+00 0 0 0
138 1 2 1.4572092495681402e-01 5.9635834975763817e+00 1.3670380365717090e+01 5.9289992747625258e+00 0 0 0
139 1 2 1.3455196457041263e-01 5.8976348495017916e+00 1.2215743149964734e+01 1.2547860628040389e+01 0 0 0
140 1 2 1.5766423529408624e-01 2.2432882931577478e+01 2.4865131790124607e+01 -3.4118661644138421e-01 -1 -1 0
142 1 2 1.3524906044420010e-01 3.5054193732838215e+00 4.7978988103094053e+00 3.9012238331723657e+00 0 0 0
143 1 2 1.5277367242846690e-01 8.4140298534785938e+00 7.5537608086312380e-01 1.2420309644655465e+01 0 1 0
144 1 2 1.5515240296817062e-01 -1.6554964981043803e+00 7.1251718412195952e+00 1.0338492839127273e+00 0 0 0
145 1 2 1.4935041917400277e-01 3.3966753342668259e+00 4.8007665751008837e+00 1.1000864751270910e+01 0 0 0
149 1 2 1.4924753249694794e-01 5.7474363951229837e+00 2.1596511001267675e+01 1.1678179542500459e+01 0 0 0
154 1 2 1.4386197252530072e-01 3.9527319154899612e+00 1.6833387072308433e+01 4.4728305326099909e+00 0 0 0
155 1 2 1.4400277508735621e-01 7.8425552823941942e+00 1.1617883954908418e+01 9.1217824825524119e+00 0 0 0
158 1 2 1.4553689266555378e-01 2.4259517234459560e+00 3.0527694527986822e+00 4.0704317516666999e-01 0 0 0
159 1 2 1.5238319565965319e-01 9.6743456666541228e+00 2.4110197157141730e+01 1.0005570511883462e+01 0 -1 0
160 1 2 1.5642320216298861e-01 1.2513706831832456e+00 1.0048018035270751e+01 1.5925627392800941e+00 0 0 0
161 1 2 1.5788391969078097e-01 5.3730855017265178e+00 7.5561006514554574e+00 8.6996160413111205e+00 0 0 0
165 1 2 1.5290959331368104e-01 7.5286508228143889e+00 2.1855130153195631e+01 7.9198230736615089e+00 0 0 0
170 1 2 1.5251057585237635e-01 3.8801388637636753e+00 1.2883826225274293e+01 5.5093730596522921e+00 0 0 0
171 1 2 1.5931508808054257e-01 5.2160495618374183e+00 1.4048483700241345e+01 1.1248246846948302e+01 0 0 0
172 1 2 1.5461706856688248e-01 1.6619947524627401e+00 2.3811730683504205e+01 5.0189728610542472e-01 0 0 0
174 1 2 1.5577158055410192e-01 1.4011403545607357e+00 3.5475493697854557e+00 4.4888445521399403e+00 0 0 0
175 1 2 1.4984356724136738e-01 6.5089264653758621e+00 1.9176330399426749e+00 1.1557648133370694e+01 0 0 0
176 1 2 1.5713587044354071e-01 -6.9065197872530115e-01 6.8550763353862472e+00 3.3309000759658280e+00 0 0 0
177 1 2 1.5121846053643304e-01 1.8113300331356808e+00 9.6776711192961073e+00 9.9953891857421269e+00 0 0 0
179 1 2 1.5177644559482900e-01 2.0881109719091246e+01 2.0034878199305155e+01 9.2744970611170352e+00 -1 0 0
181 1 2 1.5422300020218077e-01 4.6514830518806187e+00 2.4911528231072730e+01 7.9998873196960529e+00 0 0 0
183 1 2 1.5464505683100932e-01 1.7309598882878102e+01 1.4426469947497207e+00 1.2034877155049696e+01 -1 0 0
184 1 2 1.5731972839501379e-01 7.8086596069604841e+00 5.4243117960852638e+00 2.7384246848172995e+00 0 0 0
186 1 2 1.4287100540061562e-01 4.7266419846971583e+00 1.2858873513399194e+01 1.3157072299746180e+00 0 0 0
190 1 2 1.4241098945035593e-01 3.4675097378409339e+00 -9.6863839860534262e-03 4.3439413128689663e+00 0 0 0
193 1 3 2.8755656681403896e-02 7.7530849431603599e-01 6.6300143733293488e+00 9.7402497578542508e+00 0 0 0
195 1 3 3.9830099556604145e-02 7.3833597541338492e-01 1.8564136727244613e+01 8.6262648314318469e+00 0 0 0
196 1 3 2.3914587330172158e-02 9.3993683957490184e+00 1.9349030931592580e+01 3.7267091109824371e+00 0 0 0
197 1 3 3.4641903811198624e-02 3.2269268942482414e+00 2.2726597222372313e+01 9.7757600179337309e+00 0 0 0
199 1 3 3.1878508537752065e-02 1.9000249862763035e+01 2.1729834056690294e+00 9.5274104622484188e+00 -1 0 0
200 1 3 2.7840560042244097e-02 7.4609299211672369e+00 8.1687710244433482e+00 4.4339448436850413e+00 0 0 0
202 1 3 2.1681594183171008e-02 6.0099256104549266e+00 1.5620379210900737e+01 2.3740457570431133e+00 0 0 0
206 1 3 3.3254612619954424e-02 4.8270700101959640e+00 1.4787806431853150e+00 1.8551313639802185e+00 0 0 0
209 1 3 2.4469770713087069e-01 -5.9497636529951592e-01 7.1253460100346064e+00 1.0232728239159769e+01 0 0 0
211 1 3 2.5019414758211334e-01 1.0448310057620622e+00 1.9674993323513650e+01 7.6157241061925864e+00 0 0 0
212 1 3 2.3863954876907656e-01 8.6438224037847817e+00 1.7990899234398551e+01 3.9430700001219181e+00 0 0 0
213 1 3 2.4338759046095385e-01 2.1402938137695964e+00 2.3798604539039278e+01 1.0063091067486734e+01 0 0 0
215 1 3 2.4530653263733426e-01 -2.6294651079016136e+00 2.6293921042381729e+00 1.0394703015108185e+01 0 0 0
216 1 3 2.4970457967232335e-01 6.7191038501957046e+00 7.7128349970227656e+00 5.6801079398044676e+00 0 0 0
218 1 3 2.3585379695460901e-01 6.4724900324149779e+00 1.6034371688348060e+01 9.6270095852581727e-01 0 0 0
222 1 3 2.5066217371256677e-01 5.6473512471607341e+00 2.2449705222046268e-01 1.4037385519126913e+00 0 0 0
225 1 3 2.9203518832110580e-02 2.1222603189165139e+00 7.2367750448211101e+00 7.6729040690561439e+00 0 0 0
227 1 3 3.2027746080194784e-02 2.9156710661380814e-01 1.8581251104675029e+01 1.1168348408725933e+01 0 0 0
229 1 3 3.2504337801474263e-02 4.2004011254565050e+00 2.1664658069066665e+01 7.6340581770604148e+00 0 0 0
231 1 3 3.6261467075869011e-02 1.7579967118663191e+01 4.7216324455042202e-02 9.2222419229484167e+00 -1 0 0
234 1 3 3.6645656924490649e-02 6.6477349541051476e+00 1.3601553072621796e+01 3.8795341461791031e+00 0 0 0
238 1 3 3.6778210667582648e-02 4.7265818416516581e+00 3.0400999947226728e+00 3.9739101269736778e+00 0 0 0
241 1 3 2.3017375711234500e-01 2.4717552049095035e+00 8.3788033453611916e+00 6.7173344980306187e+00 0 0 0
243 1 3 2.3831727341440195e-01 -2.5470242833697032e-01 1.9433667869991957e+01 1.2317963403031918e+01 0 0 0
244 1 3 2.4378206533676933e-01 8.4272384914291241e+00 2.2023198312240730e+01 1.0892978602307066e+00 0 0 0
245 1 3 2.4827174080932507e-01 4.3340913962115515e+00 2.1971248622252169e+01 6.1045240609442581e+00 0 0 0
247 1 3 2.4939659050773744e-01 1.6947541896439322e+01 -1.1252514818784745e+00 9.9954529715569365e+00 -1 0 0
248 1 3 2.4348931415103747e-01 5.9938081347135084e+00 8.1828930334198944e+00 8.4467266211905190e-01 0 0 0
250 1 3 2.5223121324118242e-01 8.0767413688361263e+00 1.4123906170191677e+01 4.1608939041685176e+00 0 0 0
254 1 3 2.4056292683657104e-01 4.7364755305309743e+00 2.9957996104429934e+00 5.5116760173760380e+00 0 0 0
257 1 3 3.4668121872262279e-02 3.2511748567918950e+00 5.2586451475566438e+00 8.9603795242312465e+00 0 0 0
261 1 3 3.4492669440297066e-02 5.1774409084517163e+00 2.0642070374148378e+01 9.8009453036044896e+00 0 0 0
266 1 3 1.8158774859573450e-02 5.4863171819803522e+00 1.5579986903371331e+01 5.0196133432587233e+00 0 0 0
270 1 3 2.0345806028608734e-02 3.5059291625651712e+00 4.0086046467916088e+00 1.9979178061020653e+00 0 0 0
272 1 3 3.2135584930189171e-02 -3.0751660615032739e-01 8.8402370027881023e+00 8.7855507626927354e-01 0 0 0
273 1 3 2.4857240181788459e-01 2.0524021460916160e+00 4.3940846179973532e+00 8.4958194606494750e+00 0 0 0
275 1 3 2.4843642788110476e-01 2.0041028618402574e+00 1.6409902737948542e+01 1.0078065319377945e+01 0 0 0
277 1 3 2.4238594926802468e-01 3.7821317582363214e+00 2.0016955399802690e+01 9.9669982422967038e+00 0 0 0
282 1 3 2.4498318838167704e-01 5.4743406571253779e+00 1.6080595480301170e+01 6.4715423028820576e+00 0 0 0
286 1 3 2.4496261800244126e-01 4.8796491979134045e+00 4.2470282304512317e+00 1.3281325039959728e+00 0 0 0
289 1 3 2.1080834916271808e-02 4.3869058003208066e+00 6.6744621593941114e+00 1.0435453888350935e+01 0 0 0
293 1 3 3.1231245703563611e-02 6.9017626181659271e+00 2.2284177298311132e+01 9.9611079854198792e+00 0 0 0
298 1 3 2.4129140519821603e-02 3.2984160558795557e+00 1.4712713153909919e+01 4.4520706691363428e+00 0 0 0
299 1 3 2.9142992483464802e-02 6.6266200449849286e+00 1.3440211609717252e+01 9.6895061381415424e+00 0 0 0
300 1 3 2.5315390667016567e-02 1.2672030105997543e+00 2.4803721904249315e+01 2.4260807756105041e+00 0 0 0
302 1 3 3.1654183237214119e-02 1.4800665364848529e+00 2.8580399691563971e+00 2.4141656251198165e+00 0 0 0
303 1 3 3.5123679994395793e-02 6.1062221544807409e+00 2.8186988033698812e-01 1.0244060682064241e+01 0 0 0
304 1 3 2.9185828872610030e-02 4.0998163540910237e-01 8.6933424554049417e+00 3.1501282472806817e+00 0 0 0
305 1 3 2.3806091569410187e-01 5.6920326259287375e+00 5.8921999116016002e+00 1.0662786979137262e+01 0 0 0
309 1 3 2.4904613815238019e-01 8.0969827691941045e+00 2.1424105197851375e+01 1.0424198221118782e+01 0 0 0
314 1 3 2.5117687852658499e-01 2.4575615530429031e+00 1.4917635763134353e+01 5.7197622429884118e+00 0 0 0
315 1 3 2.5081705398687126e-01 5.3415984425391052e+00 1.2910594609092239e+01 8.9751075162384844e+00 0 0 0
316 1 3 2.3719842516626050e-01 -1.0505403373610680e+00 -2.3629438547815632e-01 1.9761511870131163e+00 0 1 0
318 1 3 2.4330824691122316e-01 4.8150607126467149e-01 3.9662455496699884e+00 2.0573406819069158e+00 0 0 0
319 1 3 2.5390797876819837e-01 4.9602265045772933e+00 -9.1700604606518632e-02 1.1168499877048831e+01 0 0 0
320 1 3 2.4379004452751160e-01 1.5744161057656219e+00 7.6933006465419265e+00 3.0558670020204444e+00 0 0 0
321 1 3 3.4474695899079609e-02 3.7350040333550023e+00 8.8411077434399008e+00 9.2086000578210800e+00 0 0 0
325 1 3 2.7839785011557462e-02 6.1827283050693769e+00 2.3486825002721240e+01 7.7383623895403053e+00 0 0 0
330 1 3 3.6614337212787826e-02 4.1630115692627747e+00 1.2655338980235747e+01 3.3488901909357547e+00 0 0 0
332 1 3 2.8514892170221628e-02 6.8679399417278342e-01 2.2427207540349283e+01 1.7638835508383650e+00 0 0 0
334 1 3 2.7912709878497886e-02 2.4025781853770232e+00 1.7500811263337903e+00 4.5040129948500338e+00 0 0 0
336 1 3 3.0529917913509327e-02 -1.8630215270753590e+00 8.4116231471626577e+00 4.1401948681368479e+00 0 0 0
337 1 3 2.4198657823944159e-01 4.5899694281226369e+00 9.7381088693904037e+00 1.0144035277485859e+01 0 0 0
341 1 3 2.3901568851938737e-01 7.3749967265685239e+00 2.4443581482745635e+01 7.8656950523480758e+00 0 0 0
346 1 3 2.3324346739205981e-01 2.7635985378648531e+00 1.2169014046109837e+01 2.9662106431556947e+00 0 0 0
347 1 3 2.4908297325121287e-01 6.7091090898450307e+00 1.6300349567431621e+01 1.0691340547829192e+01 0 0 0
348 1 3 2.6142724772648623e-01 1.9752706973784222e+00 2.1675279658292201e+01 2.1489473153652794e+00 0 0 0
350 1 3 2.5286501730599720e-01 1.0938145331466798e+00 1.0354226238704196e+00 5.0093105541608098e+00 0 0 0
351 1 3 2.4279853920183106e-01 6.3322170664841630e+00 3.0601739244214592e+00 9.0972616877224546e+00 0 0 0
352 1 3 2.4679794142149131e-01 -1.3308628671294929e+00 8.1880207274164984e+00 5.5478603762513830e+00 0 0 0
353 1 3 3.0106731708207213e-02 2.2091924883896707e+00 7.9302268064906336e+00 1.1135238991429013e+01 0 0 0
355 1 3 2.0753355328558678e-02 2.1254904280711646e+01 1.8309499244928201e+01 8.1363756846351478e+00 -1 0 0
357 1 3 3.4330008318249908e-02 5.1163758964318475e+00 2.4277321218685422e+01 9.9626794860163095e+00 0 0 0
362 1 3 2.1890531852186632e-02 3.7787382345709166e+00 1.4761312506023152e+01 1.8941892119405419e+00 0 0 0
366 1 3 2.3325993034856600e-02 2.6888092000041839e+00 4.1694129081511944e-01 2.3752134610916764e+00 0 0 0
369 1 3 2.5250055988554393e-01 1.2870886651751423e+00 8.6443977472692879e+00 1.2127413188199046e+01 0 0 0
371 1 3 2.4560613641456505e-01 2.1073358383821539e+01 1.9234644691128370e+01 6.9342603840279713e+00 -1 0 0
373 1 3 2.5755533180513512e-01 1.0570123361939974e+00 -3.8776062531151756e-01 1.0338958143907789e+01 0 1 0
375 1 3 2.5189984831094603e-01 1.8104314923433435e+01 4.1557107258043846e+00 1.1822333608497562e+01 -1 0 0
378 1 3 2.3991654376812180e-01 3.6325023220940835e+00 1.5118148043071397e+01 4.0215853654691469e-01 0 0 0
382 1 3 2.5085979740900094e-01 6.4482670754850187e+00 2.4951263761813852e+01 2.1097082252887596e+00 0 -1 0
385 1 4 -1.8691182524434241e-01 -1.3075831023148297e+00 7.8799340027575351e+00 9.4531603131949318e+00 0 0 0
387 1 4 -2.2063125771213521e-01 1.1116152108838042e+00 2.0907695480440569e+01 8.0052477918630167e+00 0 0 0
388 1 4 -2.4953490217115840e-01 7.7612031647963118e+00 1.7662982497977470e+01 3.0842723993363186e+00 0 0 0
389 1 4 -2.1073675074512963e-01 1.8824641545795204e+00 2.4655877938322313e+01 9.1645197815053692e+00 0 0 0
391 1 4 -1.8107900063451221e-01 -1.8787053927606894e+00 1.7273288897696624e+00 1.0943430360991300e+01 0 0 0
392 1 4 -2.2256549971427672e-01 5.8973951969324858e+00 6.7291100738304275e+00 5.6101495190172619e+00 0 0 0
401 1 4 -1.9036225553549818e-01 -1.0227391412049780e+00 6.6979678608415902e+00 1.1360686325457863e+01 0 0 0
403 1 4 -1.6116641948607308e-01 1.4293161949905135e+00 1.9430446178599343e+01 6.4039394248175929e+00 0 0 0
404 1 4 -1.7619956506542439e-01 8.9530312918789132e+00 1.7211981291307229e+01 4.9178994708423005e+00 0 0 0
405 1 4 -1.8276483648573860e-01 1.5276645148132930e+00 2.3758052520577248e+01 1.1206410895473304e+01 0 0 0
407 1 4 -1.8558848967899944e-01 -2.2794123698037074e+00 3.8448346165366800e+00 1.0417298338286024e+01 0 0 0
408 1 4 -1.8850631979896484e-01 6.9408194590186287e+00 8.3155217823402179e+00 6.7974921042312033e+00 0 0 0
410 1 4 -1.9148689962725951e-01 6.0124429553009744e+00 1.7144668339049755e+01 4.9802649721172154e-01 0 0 0
414 1 4 -1.8336762327193160e-01 5.4109773492097242e+00 -2.3079992889652817e-01 2.3284217630186699e-01 0 0 0
417 1 4 -2.0865219225545104e-01 3.6142470311682202e+00 8.3789958947250529e+00 6.1202740711127168e+00 0 0 0
419 1 4 -2.1896235887478735e-01 1.5099898830303879e+00 1.9815538957273333e+01 -1.3828357741960801e-01 0 0 1
421 1 4 -1.8654982602525447e-01 5.2264510931532957e+00 2.1376078639301110e+01 5.4061511267754048e+00 0 0 0
426 1 4 -1.7804387979868486e-01 8.4392639394716262e+00 1.4061321063635020e+01 5.3869556301904966e+00 0 0 0
430 1 4 -2.1171071813598891e-01 4.6224336564630324e+00 4.1137454431659144e+00 6.1448949575985701e+00 0 0 0
433 1 4 -2.0666895139166913e-01 1.5763103005456536e+00 9.2333997087559379e+00 6.3602934495996477e+00 0 0 0
435 1 4 -2.1957265506936158e-01 -4.6436846357885564e-01 2.0697050728096645e+01 1.2114600846406447e+01 0 0 -1
436 1 4 -2.0490048576798370e-01 7.6608971711455478e+00 2.1309534993869864e+01 3.8560638550743642e-01 0 0 1
437 1 4 -2.0412115718022406e-01 3.4993362640683325e+00 2.2790652727846510e+01 5.5909850122531219e+00 0 0 0
439 1 4 -2.1561843405749626e-01 2.0975312057756547e+01 2.4450417805724751e+01 1.1011251055833242e+01 -1 -1 -1
440 1 4 -2.1877298290779804e-01 5.5239980659925596e+00 6.9970192134735134e+00 7.9095819058405148e-01 0 0 1
442 1 4 -1.8216724532712250e-01 8.8960247672554384e+00 1.4397958418317611e+01 3.2035418129028552e+00 0 0 0
446 1 4 -2.1103405286321669e-01 4.9040834383696179e+00 1.8633607567452133e+00 6.1264278379463013e+00 0 0 0
449 1 4 -2.0129492344484190e-01 1.5399730448590176e+00 4.5829643195295109e+00 7.3264600875942065e+00 0 0 0
451 1 4 -1.7167032186968667e-01 2.7350009178322479e+00 1.6758399970905291e+01 1.1056608132012141e+01 0 0 0
453 1 4 -2.2024747107809725e-01 3.2461882890045262e+00 1.9406317946180899e+01 8.9575635316538609e+00 0 0 0
455 1 4 -2.1292278944077725e-01 1.9198106556758141e+01 4.5112479302857622e-01 7.0727367501021261e+00 -1 1 0
458 1 4 -2.0985586292481462e-01 6.0694678645694822e+00 1.5397344490799608e+01 7.4035621416156392e+00 0 0 0
462 1 4 -2.4437463304509441e-01 5.8542407075207823e+00 4.6062111472721394e+00 2.0427913765479451e+00 0 0 0
465 1 4 -1.6194248367095643e-01 1.5472750963919459e+00 3.5049791656946732e+00 9.2682887002780561e+00 0 0 0
469 1 4 -2.1817793804521352e-01 3.0212137483978871e+00 2.0386589654768489e+01 1.0928039714080946e+01 0 0 0
474 1 4 -1.8752464993209733e-01 5.0264973852904404e+00 1.7257112774050317e+01 6.7656283984952230e+00 0 0 0
478 1 4 -2.0505750379069809e-01 4.8908631885078755e+00 4.1651842276935778e+00 4.0739720279405978e-02 0 0 0
485 1 4 -1.8066483707425243e-01 8.9863568000141854e+00 2.1121437375096765e+01 9.5686246237307522e+00 0 0 0
490 1 4 -1.8961895458796374e-01 2.3667638131932365e+00 1.3941061677633055e+01 6.5549509710898786e+00 0 0 0
491 1 4 -1.8731858196179041e-01 4.2092997371500678e+00 1.3090091412609667e+01 9.5453127657540620e+00 0 0 0
492 1 4 -2.1027069480752403e-01 -3.3452191167985701e-01 -4.9884927883079228e-01 9.4376207204716089e-01 0 1 0
494 1 4 -1.8802179876710345e-01 -3.2378300921034153e-01 4.3203221263825302e+00 3.0240404416924265e+00 0 0 0
495 1 4 -1.9198304242920411e-01 4.7891975961954198e+00 6.7958143282806560e-01 1.2181677294241723e+01 0 0 0
496 1 4 -2.4189423337230070e-01 1.4023171257091134e+00 6.6223229429673145e+00 3.7126258436264976e+00 0 0 0
497 1 4 -2.1924320069139608e-01 5.7697635193800965e+00 5.3225397152356626e+00 1.1808872861433915e+01 0 0 0
501 1 4 -2.0428564723628642e-01 8.2264037306078635e+00 2.1100766488058081e+01 1.1677427304571292e+01 0 0 0
506 1 4 -2.0201722101840569e-01 1.9045148806317167e+00 1.6065334691584297e+01 5.8834682961664031e+00 0 0 0
507 1 4 -2.1789759455889213e-01 5.4681241395694169e+00 1.2194838755122328e+01 7.9009488843583400e+00 0 0 0
508 1 4 -2.1146935415661003e-01 -7.7951060595501254e-01 7.7458092042322146e-01 2.7127952187715070e+00 0 1 0
510 1 4 -2.0577068151127637e-01 3.1695145128375479e-01 4.2535852689904550e+00 8.3908491964182019e-01 0 0 0
511 1 4 -2.2601581871020787e-01 4.1583105586698288e+00 -1.0416351942072777e+00 1.0920690029867199e+01 0 0 0
512 1 4 -2.0157841366601195e-01 2.6647751182713377e+00 7.9998120615971402e+00 2.4601775684394864e+00 0 0 0
513 1 4 -2.2288351362729644e-01 4.0887501229396346e+00 1.0454611551827366e+01 1.1054278115752435e+01 0 0 0
517 1 4 -2.0075678893826937e-01 3.8629129253004049e+00 -3.1841020022094024e-01 7.7494192140919163e+00 0 1 0
522 1 4 -2.3132495711148421e-01 2.3061720734322861e+00 1.2220403939631103e+01 1.7786004400348627e+00 0 0 0
524 1 4 -1.6948007648636476e-01 1.9050031929382083e+00 2.0791968245173635e+01 3.0758873740921429e+00 0 0 0
526 1 4 -2.0702216566057757e-01 1.1796022814285365e+00 -1.2983935802976704e-01 5.5631602359248351e+00 0 0 0
528 1 4 -1.9444400575493176e-01 -1.5420670171375335e+00 9.0997203790778869e+00 6.4134840090254022e+00 0 0 0
529 1 4 -2.2790242561732746e-01 5.8472279572962558e+00 9.7158669930318347e+00 9.9309251411688635e+00 0 0 0
533 1 4 -2.5881192905203032e-01 8.5100189786958627e+00 2.3931282300030475e+01 8.2225159710800320e+00 0 0 0
538 1 4 -2.2308192166128588e-01 2.0369733192810253e+00 1.1701372590488488e+01 3.9187799939836054e+00 0 0 0
539 1 4 -1.6820472162609229e-01 5.5330507785364436e+00 1.6376858674576052e+01 1.0216718566840743e+01 0 0 0
540 1 4 -1.6288208549982969e-01 3.1132628575654788e+00 2.2104430661806003e+01 1.7510090123554698e+00 0 0 0
542 1 4 -1.5897080198497271e-01 6.5180614715322882e-02 1.7317118116790122e+00 5.2928961922217397e+00 0 0 0
543 1 4 -2.1941800945342899e-01 5.1938125324948681e+00 2.7977958611380629e+00 9.5599199999788809e+00 0 0 0
544 1 4 -1.9380250835984103e-01 -7.3964578855471697e-01 7.0703241770055465e+00 5.8413010771650393e+00 0 0 0
545 1 4 -1.8212505095951506e-01 1.2700234598408606e+00 9.9291539433263498e+00 1.2124358837401914e+01 0 0 0
547 1 4 -1.7675983689369415e-01 2.0537186558890497e+01 2.0373380726429808e+01 7.1239000990415402e+00 -1 0 0
549 1 4 -1.5458124528642361e-01 1.0563297949150563e+00 6.2068831878137543e-01 9.5355369784157347e+00 0 1 0
551 1 4 -1.8724005091367132e-01 1.7814727495827665e+01 3.8931781805044370e+00 1.3062382586911689e+01 -1 0 0
552 1 4 -1.8957352402756578e-01 8.2228516607660165e+00 4.3616670066340424e+00 4.6753186450099831e+00 0 0 0
554 1 4 -1.8712564841298426e-01 1.5405440238623580e+00 1.3245860171521903e+01 1.3031211709434245e+01 0 0 -1
558 1 4 -2.0373877207014918e-01 6.7679933642110264e+00 2.4139701246387695e+01 3.0315071568826100e+00 0 -1 0
561 1 4 -1.9237267421327175e-01 8.1308795305412040e-01 7.9704211503973870e+00 1.3113552098603527e+01 0 0 0
563 1 4 -1.9898515081106974e-01 2.1386968337645673e+01 1.8808281617439651e+01 5.7767884042002287e+00 -1 0 0
565 1 4 -2.0015791623942711e-01 7.2115916412839542e-01 -1.3275560638677097e-01 1.1557950885170545e+01 0 1 0
567 1 4 -1.8028500211089976e-01 1.8657837471175519e+01 5.2585436802418180e+00 1.1553510455807750e+01 -1 0 0
570 1 4 -2.3012272261887901e-01 3.1297175080093980e+00 1.6263826914160024e+01 4.7636763949675087e-02 0 0 0
574 1 4 -1.8928100814161405e-01 6.4871458901193320e+00 2.4603864899506821e+01 8.7762432911259203e-01 0 -1 0
4 1 1 -2.1335707699770522e-02 1.0924007517555275e+01 1.9236729754415414e+01 3.6903260170171217e+00 0 0 0
8 1 1 -2.3489059789521531e-02 8.9226072537586028e+00 7.8652891910482126e+00 4.4826072038235685e+00 0 0 0
11 1 1 -3.3095392970435317e-02 9.2057063563315484e+00 1.3057434353913388e+01 1.0124896889088355e+01 0 0 0
15 1 1 -1.7944664073757340e-02 7.6776547530420958e+00 -7.5422486745201511e-01 8.5652140869844011e+00 0 0 0
27 1 1 -1.9125931490012356e-02 9.0460002032833309e+00 1.3674350994839635e+01 1.2387183162645364e+01 0 0 0
29 1 1 -2.3790849961611918e-02 1.4424531449636570e+01 1.9733455727485186e+01 9.4751473963547070e+00 0 0 0
31 1 1 -2.4857577140615351e-02 9.4564646021055303e+00 7.0678506428572985e-01 9.1962000558178829e+00 0 0 0
36 1 1 -2.7649875318003926e-02 1.0257299132666398e+01 2.2110564167382339e+01 2.7962993937541585e+00 0 0 0
40 1 1 -2.6314154104670431e-02 8.1213645597188737e+00 9.1578861813401211e+00 1.7773497759394710e+00 0 0 0
43 1 1 -2.6784919514902382e-02 6.7837019287444154e+00 1.2626449236685984e+01 1.2061899915664842e+01 0 0 0
47 1 1 -2.0336836555952160e-02 8.2473208146802328e+00 4.5267699712734744e-01 1.1387939195844812e+01 0 0 0
52 1 1 -1.9625792849187064e-02 1.1706879582541793e+01 2.0573707725432179e+01 3.9533563115935006e+00 0 0 0
56 1 1 -2.0073150614257240e-02 9.6722016536521220e+00 8.9926347580943489e+00 3.5778630976296144e+00 0 0 0
59 1 1 -2.6292258165940621e-02 7.7731620019775711e+00 1.2383294085841500e+01 9.9449809994817393e+00 0 0 0
63 1 1 -1.5735678393727838e-02 6.9174421518201497e+00 -9.3787297463111141e-01 9.9751697068518759e+00 0 0 0
68 1 1 -2.7757780014399901e-02 1.1438707664253984e+01 2.1665559810043057e+01 1.8683057716151232e+00 0 0 0
72 1 1 -2.0033517294737957e-02 9.2389076949081108e+00 8.0661300488480485e+00 1.3901626804224625e+00 0 0 0
84 1 1 -2.9425199718916072e-02 1.0339986824292675e+01 1.9508617441674524e+01 1.4306571789699227e+00 0 0 0
88 1 1 -2.2290944273687146e-02 8.1526915717676225e+00 6.4614646463612901e+00 2.8042777743061085e+00 0 0 0
91 1 1 -2.3328607229483034e-02 8.6208722193767180e+00 1.4888957063910896e+01 1.1503670282566738e+01 0 0 0
95 1 1 -2.7795120192717862e-02 8.2249570738755402e+00 1.5323394859121469e+00 8.5793830391231012e+00 0 0 0
96 1 1 -2.5875056508853758e-02 2.0682194897462566e+01 9.8973232737484089e+00 3.8526407085972876e+00 0 0 0
100 1 2 1.5402444468315851e-01 1.1171590547187668e+01 1.8466903944677618e+01 4.4872566069291455e+00 0 0 0
104 1 2 1.5240554181675114e-01 9.2544309936256290e+00 7.9400933686897570e+00 5.5417302478712980e+00 0 0 0
107 1 2 1.3910166288096723e-01 9.9047011097452078e+00 1.2707311368978184e+01 9.3455785834794369e+00 0 0 0
109 1 2 1.4477934843429541e-01 1.2596212626532093e+01 2.1630287637684340e+01 1.1406231791599449e+01 0 0 0
111 1 2 1.5255100226611309e-01 1.0810986308293707e+01 2.4430849806700369e+01 7.8354805421967333e+00 0 -1 0
121 1 2 1.6094530227365797e-01 1.2784999002615937e+01 1.0231214252719468e+01 1.0382603501719512e+01 0 0 0
123 1 2 1.6058765577660228e-01 1.2077151413420674e+01 1.4916993292333441e+01 -3.3152519366553485e-01 0 0 1
125 1 2 1.5148056525872458e-01 1.4386247892059700e+01 1.9696558545972788e+01 8.3777948038195440e+00 0 0 0
127 1 2 1.4849450470792525e-01 1.0511918780182830e+01 1.0470625168707621e+00 8.8945000246233619e+00 0 0 0
132 1 2 1.4563266298324407e-01 1.0128581772902239e+01 2.3187949318327671e+01 2.6661577428016021e+00 0 -1 0
136 1 2 1.3498661108250157e-01 7.9227258826214539e+00 9.8714687197352120e+00 9.7145723745445722e-01 0 0 0
148 1 2 1.5103240664601586e-01 1.2452638411478077e+01 2.0457364185948741e+01 4.8193138889790159e+00 0 0 0
152 1 2 1.4606978727824388e-01 1.0343745283557219e+01 9.6048844949451126e+00 4.2379499160700069e+00 0 0 0
164 1 2 1.5355874772702185e-01 1.1871409578118612e+01 2.2526834381005429e+01 1.3563856237416381e+00 0 0 0
166 1 2 1.4901209163646309e-01 1.4260501118348387e+01 6.6274057267981599e+00 1.1980448614746866e+00 0 0 0