ITEM: TIMESTEP
0
ITEM: NUMBER OF ATOMS
672
ITEM: BOX BOUNDS xy xz yz pp pp pp
0.0000000000000000e+00 2.9982000351000000e+01 0.0000000000000000e+00
0.0000000000000000e+00 1.2154000282300000e+01 0.0000000000000000e+00
0.0000000000000000e+00 2.0017000198400002e+01 0.0000000000000000e+00
ITEM: ATOMS id type xs ys zs
1 1 0.141706 0.0680446 0.154583
2 1 0.641705 0.0680503 0.15458
3 1 0.358294 0.931956 0.654583
4 1 0.858295 0.93195 0.654581
5 1 0.391705 0.931947 0.154579
6 1 0.891705 0.931953 0.154582
7 1 0.108294 0.0680475 0.654581
8 1 0.608294 0.0680414 0.654584
9 1 0.141706 0.568048 0.154581
10 1 0.641705 0.568054 0.154578
11 1 0.358293 0.431954 0.654582
12 1 0.858295 0.431949 0.65458
13 1 0.391706 0.431946 0.154578
14 1 0.891706 0.431952 0.154581
15 1 0.108294 0.568051 0.654579
16 1 0.608294 0.568045 0.654582
17 1 0.188183 0.0465735 0.151917
18 1 0.688184 0.0465737 0.151917
19 1 0.311817 0.953426 0.651917
20 1 0.811816 0.953426 0.651917
21 1 0.438185 0.953426 0.151916
22 1 0.938183 0.953427 0.151917
23 1 0.0618162 0.0465737 0.651917
24 1 0.561818 0.046573 0.651917
25 1 0.188185 0.546574 0.151917
26 1 0.688186 0.546574 0.151916
27 1 0.311816 0.453426 0.651917
28 1 0.811815 0.453426 0.651917
29 1 0.438187 0.453425 0.151916
30 1 0.938184 0.453426 0.151917
31 1 0.0618145 0.546574 0.651916
32 1 0.561816 0.546574 0.651917
33 1 0.214917 0.113918 0.110495
34 1 0.714915 0.113923 0.110494
35 1 0.285083 0.886082 0.610495
36 1 0.785085 0.886077 0.610494
37 1 0.464913 0.886075 0.110493
38 1 0.964917 0.88608 0.110494
39 1 0.0350841 0.113921 0.610494
40 1 0.535081 0.113916 0.610496
41 1 0.214915 0.613921 0.110495
42 1 0.714913 0.613925 0.110493
43 1 0.285084 0.386082 0.610496
44 1 0.785086 0.386077 0.610494
45 1 0.464912 0.386075 0.110494
46 1 0.964915 0.386079 0.110495
47 1 0.0350866 0.613923 0.610494
48 1 0.535084 0.613918 0.610495
49 1 0.194994 0.201544 0.073106
50 1 0.694992 0.201539 0.0731091
51 1 0.305006 0.798456 0.573106
52 1 0.805008 0.79846 0.573109
53 1 0.444991 0.798463 0.0731107
54 1 0.944993 0.798458 0.0731073
55 1 0.0550069 0.201542 0.573108
56 1 0.555005 0.201546 0.573104
57 1 0.194993 0.701541 0.0731081
58 1 0.694991 0.701537 0.0731111
59 1 0.305006 0.298457 0.573107
60 1 0.805008 0.298461 0.57311
61 1 0.444991 0.298464 0.0731113
62 1 0.944993 0.298459 0.0731079
63 1 0.0550081 0.701539 0.57311
64 1 0.555006 0.701543 0.573106
65 1 0.148407 0.223108 0.0793932
66 1 0.648408 0.2231 0.0793962
67 1 0.351594 0.776891 0.579393
68 1 0.851592 0.776899 0.579396
69 1 0.398408 0.776904 0.0793981
70 1 0.898407 0.776895 0.0793943
71 1 0.101593 0.223104 0.579395
72 1 0.601594 0.223114 0.579391
73 1 0.148407 0.723102 0.0793956
74 1 0.648409 0.723094 0.0793986
75 1 0.351593 0.276894 0.579394
76 1 0.851592 0.276901 0.579397
77 1 0.398409 0.276907 0.0793992
78 1 0.898407 0.276897 0.0793954
79 1 0.101592 0.723098 0.579397
80 1 0.601593 0.723107 0.579394
81 1 0.120648 0.155053 0.119164
82 1 0.620646 0.155056 0.119163
83 1 0.379352 0.844947 0.619164
84 1 0.879354 0.844945 0.619163
85 1 0.370645 0.844941 0.119162
86 1 0.870647 0.844946 0.119164
87 1 0.129353 0.155055 0.619164
88 1 0.629351 0.15505 0.619165
89 1 0.120646 0.655057 0.119163
90 1 0.620645 0.65506 0.119162
91 1 0.379353 0.344945 0.619163
92 1 0.879354 0.344942 0.619162
93 1 0.370644 0.344938 0.119161
94 1 0.870647 0.344944 0.119163
95 1 0.129355 0.655059 0.619162
96 1 0.629352 0.655054 0.619164
97 1 0.11496 0.997667 0.205262
98 1 0.61496 0.997666 0.205263
99 1 0.38504 0.00233301 0.705262
100 1 0.88504 0.00233346 0.705263
101 1 0.364959 0.00233515 0.205264
102 1 0.86496 0.00233292 0.205262
103 1 0.13504 0.997667 0.705263
104 1 0.63504 0.997668 0.705261
105 1 0.114959 0.497665 0.205264
106 1 0.614959 0.497664 0.205264
107 1 0.385041 0.502334 0.705263
108 1 0.885041 0.502335 0.705264
109 1 0.364958 0.502336 0.205265
110 1 0.864959 0.502334 0.205263
111 1 0.135041 0.497665 0.705264
112 1 0.63504 0.497667 0.705263
113 1 0.26366 0.185775 0.844971
114 1 0.763664 0.185777 0.844971
115 1 0.236343 0.814227 0.344972
116 1 0.736339 0.814225 0.344971
117 1 0.0136578 0.814227 0.844972
118 1 0.513661 0.814225 0.844971
119 1 0.48634 0.185775 0.344971
120 1 0.986336 0.185777 0.344971
121 1 0.263643 0.685763 0.844973
122 1 0.763646 0.685765 0.844973
123 1 0.236358 0.314237 0.344973
124 1 0.736354 0.314235 0.344973
125 1 0.0136426 0.314237 0.844973
126 1 0.513646 0.314235 0.844973
127 1 0.486357 0.685763 0.344973
128 1 0.986354 0.685766 0.344973
129 1 0.311746 0.204872 0.847008
130 1 0.811746 0.204872 0.847007
131 1 0.188254 0.795127 0.347008
132 1 0.688254 0.795128 0.347008
133 1 0.0617461 0.795127 0.847008
134 1 0.561746 0.795128 0.847008
135 1 0.438254 0.204872 0.347008
136 1 0.938254 0.204872 0.347007
137 1 0.311745 0.704874 0.847009
138 1 0.811746 0.704873 0.847008
139 1 0.188255 0.295126 0.347009
140 1 0.688254 0.295127 0.347008
141 1 0.0617454 0.295126 0.847009
142 1 0.561746 0.295127 0.847008
143 1 0.438255 0.704874 0.347009
144 1 0.938254 0.704873 0.347008
145 1 0.337645 0.132417 0.889593
146 1 0.837644 0.13243 0.889586
147 1 0.162355 0.867596 0.389599
148 1 0.662356 0.867581 0.389591
149 1 0.0876446 0.867595 0.889598
150 1 0.587644 0.867582 0.889592
151 1 0.412355 0.132416 0.389593
152 1 0.912356 0.132431 0.389586
153 1 0.337646 0.632346 0.889627
154 1 0.837645 0.632358 0.889621
155 1 0.162355 0.367655 0.389627
156 1 0.662355 0.367641 0.38962
157 1 0.0876455 0.367654 0.889627
158 1 0.587645 0.367641 0.889621
159 1 0.412355 0.632346 0.389627
160 1 0.912355 0.632359 0.38962
161 1 0.316914 0.0438297 0.924349
162 1 0.816914 0.04383 0.924349
163 1 0.183087 0.956171 0.424349
164 1 0.683086 0.95617 0.424349
165 1 0.0669134 0.956171 0.924349
166 1 0.566914 0.95617 0.924349
167 1 0.433086 0.0438297 0.424349
168 1 0.933086 0.04383 0.424349
169 1 0.316913 0.543823 0.924351
170 1 0.816913 0.543825 0.92435
171 1 0.183087 0.456177 0.424351
172 1 0.683087 0.456175 0.42435
173 1 0.066913 0.456177 0.924351
174 1 0.566913 0.456175 0.92435
175 1 0.433087 0.543823 0.424351
176 1 0.933087 0.543825 0.42435
177 1 0.269976 0.0218599 0.918612
178 1 0.769972 0.0218579 0.918612
179 1 0.230019 0.978138 0.418612
180 1 0.730024 0.97814 0.418612
181 1 0.0199804 0.978138 0.918612
182 1 0.519976 0.97814 0.918612
183 1 0.480023 0.02186 0.418612
184 1 0.980028 0.0218576 0.418612
185 1 0.269999 0.521874 0.918613
186 1 0.769995 0.521872 0.918613
187 1 0.23 0.478125 0.418613
188 1 0.730005 0.478128 0.418613
189 1 0.0199993 0.478125 0.918613
190 1 0.519995 0.478128 0.918613
191 1 0.480001 0.521875 0.418613
192 1 0.980005 0.521872 0.418613
193 1 0.243908 0.0965421 0.880345
194 1 0.743907 0.0965423 0.880345
195 1 0.256091 0.903459 0.380346
196 1 0.756092 0.903459 0.380346
197 1 0.493908 0.903459 0.880346
198 1 0.993909 0.903459 0.880346
199 1 0.00609269 0.0965425 0.380345
200 1 0.506091 0.0965419 0.380345
201 1 0.243914 0.596538 0.880349
202 1 0.743913 0.596538 0.880348
203 1 0.256085 0.403462 0.380349
204 1 0.756087 0.403462 0.380348
205 1 0.493913 0.403462 0.880348
206 1 0.993915 0.403462 0.880349
207 1 0.00608673 0.596538 0.380348
208 1 0.506085 0.596538 0.380349
209 1 0.231115 0.251515 0.799341
210 1 0.731115 0.251515 0.799342
211 1 0.268886 0.748483 0.29934
212 1 0.768886 0.748484 0.299341
213 1 0.481114 0.748484 0.799341
214 1 0.981114 0.748484 0.79934
215 1 0.018885 0.251514 0.299342
216 1 0.518885 0.251515 0.299341
217 1 0.231112 0.75152 0.799338
218 1 0.731113 0.75152 0.799338
219 1 0.268888 0.24848 0.299337
220 1 0.768887 0.24848 0.299338
221 1 0.481113 0.24848 0.799338
222 1 0.981112 0.24848 0.799337
223 1 0.0188873 0.751519 0.299338
224 1 0.518888 0.75152 0.299337
225 2 0.211239 0.955954 0.193484
226 2 0.711239 0.955955 0.193484
227 2 0.288761 0.0440458 0.693484
228 2 0.788761 0.0440455 0.693484
229 2 0.461239 0.0440427 0.193484
230 2 0.961239 0.0440462 0.193484
231 2 0.0387608 0.955955 0.693484
232 2 0.53876 0.955952 0.693485
233 2 0.211239 0.455957 0.193484
234 2 0.711239 0.455958 0.193483
235 2 0.288761 0.544043 0.693484
236 2 0.788761 0.544043 0.693484
237 2 0.461239 0.54404 0.193483
238 2 0.961239 0.544044 0.193484
239 2 0.0387611 0.455958 0.693483
240 2 0.538761 0.455955 0.693484
241 2 0.223076 0.272267 0.0265945
242 2 0.723074 0.272264 0.026597
243 2 0.276924 0.727732 0.526594
244 2 0.776926 0.727736 0.526597
245 2 0.473073 0.727738 0.0265982
246 2 0.973075 0.727734 0.0265955
247 2 0.026925 0.272265 0.526596
248 2 0.526923 0.27227 0.526593
249 2 0.223075 0.772265 0.0265962
250 2 0.723073 0.772261 0.0265985
251 2 0.276924 0.227733 0.526595
252 2 0.776926 0.227737 0.526597
253 2 0.473073 0.227739 0.0265988
254 2 0.973075 0.227735 0.0265961
255 2 0.0269263 0.772263 0.526597
256 2 0.526924 0.772267 0.526595
257 2 0.0697981 0.175562 0.121927
258 2 0.5698 0.175561 0.121927
259 2 0.430202 0.824438 0.621927
260 2 0.9302 0.824439 0.621927
261 2 0.319801 0.82444 0.121927
262 2 0.819799 0.824438 0.121927
263 2 0.180201 0.175561 0.621927
264 2 0.680203 0.175563 0.621927
265 2 0.0697998 0.675561 0.121927
266 2 0.569802 0.67556 0.121927
267 2 0.430201 0.324438 0.621927
268 2 0.930199 0.324439 0.621927
269 2 0.319802 0.32444 0.121927
270 2 0.8198 0.324439 0.121927
271 2 0.180199 0.675561 0.621927
272 2 0.680201 0.675562 0.621927
273 2 0.334665 0.291646 0.807277
274 2 0.834664 0.291636 0.807279
275 2 0.165334 0.708343 0.307274
276 2 0.665335 0.708355 0.307277
277 2 0.0846658 0.708344 0.807274
278 2 0.584665 0.708355 0.807277
279 2 0.415335 0.291647 0.307276
280 2 0.915336 0.291634 0.30728
281 2 0.33467 0.791697 0.807262
282 2 0.834669 0.791688 0.807264
283 2 0.16533 0.208302 0.307261
284 2 0.665331 0.208312 0.307264
285 2 0.0846698 0.208302 0.807262
286 2 0.584669 0.208312 0.807264
287 2 0.41533 0.791698 0.307262
288 2 0.915331 0.791687 0.307265
289 2 0.345556 0.96857 0.968584
290 2 0.845557 0.968568 0.968585
291 2 0.154445 0.0314274 0.468582
292 2 0.654444 0.0314303 0.468584
293 2 0.0955548 0.0314276 0.968582
294 2 0.595556 0.0314302 0.968584
295 2 0.404444 0.96857 0.468584
296 2 0.904443 0.968567 0.468586
297 2 0.34555 0.468583 0.968575
298 2 0.845551 0.468581 0.968576
299 2 0.15445 0.531417 0.468575
300 2 0.654449 0.531419 0.468576
301 2 0.0955501 0.531417 0.968575
302 2 0.595551 0.531419 0.968576
303 2 0.40445 0.468583 0.468575
304 2 0.904449 0.468581 0.468576
305 2 0.192765 0.0776133 0.880229
306 2 0.692764 0.0776132 0.880229
307 2 0.307235 0.922386 0.380229
308 2 0.807235 0.922387 0.380229
309 2 0.442765 0.922387 0.880229
310 2 0.942765 0.922386 0.880229
311 2 0.0572359 0.0776132 0.380229
312 2 0.557235 0.0776134 0.380229
313 2 0.192768 0.577615 0.880229
314 2 0.692767 0.577615 0.880229
315 2 0.307232 0.422385 0.380229
316 2 0.807233 0.422385 0.380229
317 2 0.442767 0.422385 0.880229
318 2 0.942768 0.422385 0.880229
319 2 0.0572329 0.577615 0.380229
320 2 0.557232 0.577615 0.380229
321 3 0.192908 0.862245 0.194517
322 3 0.692908 0.862244 0.194517
323 3 0.307092 0.137755 0.694517
324 3 0.807092 0.137756 0.694517
325 3 0.442908 0.137758 0.194517
326 3 0.942908 0.137755 0.194517
327 3 0.057092 0.862244 0.694517
328 3 0.557092 0.862246 0.694517
329 3 0.192908 0.362243 0.194517
330 3 0.692908 0.362242 0.194517
331 3 0.307092 0.637757 0.694517
332 3 0.807092 0.637757 0.694517
333 3 0.442908 0.637759 0.194517
334 3 0.942908 0.637757 0.194517
335 3 0.0570922 0.362242 0.694517
336 3 0.557092 0.362244 0.694517
337 3 0.248276 0.986282 0.221336
338 3 0.748276 0.986282 0.221336
339 3 0.251724 0.0137176 0.721336
340 3 0.751724 0.0137176 0.721336
341 3 0.498277 0.0137178 0.221336
342 3 0.998276 0.0137176 0.221336
343 3 0.00172356 0.986282 0.721336
344 3 0.501724 0.986283 0.721336
345 3 0.248276 0.486282 0.221336
346 3 0.748277 0.486282 0.221336
347 3 0.251724 0.513718 0.721336
348 3 0.751724 0.513718 0.721336
349 3 0.498277 0.513718 0.221336
350 3 0.998276 0.513718 0.221336
351 3 0.00172348 0.486282 0.721336
352 3 0.501724 0.486282 0.721336
353 3 0.260138 0.22969 0.00622225
354 3 0.760142 0.229685 0.00622018
355 3 0.239863 0.770309 0.506222
356 3 0.739858 0.770315 0.50622
357 3 0.0101395 0.770312 0.00622139
358 3 0.510144 0.770318 0.00621922
359 3 0.489864 0.229693 0.506223
360 3 0.98986 0.229688 0.506221
361 3 0.26014 0.729687 0.006221
362 3 0.760144 0.729682 0.00621899
363 3 0.239862 0.27031 0.506222
364 3 0.739858 0.270315 0.50622
365 3 0.0101401 0.270313 0.00622105
366 3 0.510144 0.270318 0.00621889
367 3 0.489862 0.72969 0.506222
368 3 0.989858 0.729684 0.50622
369 3 0.207312 0.368453 0.012685
370 3 0.70731 0.368463 0.0126839
371 3 0.292688 0.631548 0.512685
372 3 0.79269 0.631538 0.512684
373 3 0.457309 0.631532 0.0126834
374 3 0.957311 0.631543 0.0126846
375 3 0.0426888 0.368458 0.512684
376 3 0.542687 0.368448 0.512686
377 3 0.207311 0.868459 0.0126843
378 3 0.707309 0.868469 0.0126833
379 3 0.292688 0.131546 0.512685
380 3 0.79269 0.131536 0.512684
381 3 0.457309 0.13153 0.0126832
382 3 0.957311 0.131541 0.0126844
383 3 0.0426898 0.868464 0.512684
384 3 0.542688 0.868454 0.512685
385 3 0.0579072 0.275166 0.13458
386 3 0.557908 0.275158 0.134579
387 3 0.442093 0.724834 0.63458
388 3 0.942092 0.724841 0.634579
389 3 0.307909 0.724845 0.134579
390 3 0.807908 0.724837 0.13458
391 3 0.192092 0.275162 0.63458
392 3 0.692093 0.27517 0.63458
393 3 0.057908 0.775161 0.134579
394 3 0.557909 0.775154 0.134578
395 3 0.442093 0.224836 0.63458
396 3 0.942091 0.224843 0.634579
397 3 0.307909 0.224847 0.134578
398 3 0.807908 0.224839 0.134579
399 3 0.192091 0.775157 0.634579
400 3 0.692093 0.775165 0.63458
401 3 0.0446342 0.0916199 0.111293
402 3 0.544636 0.0916259 0.111294
403 3 0.455366 0.90838 0.611293
404 3 0.955364 0.908375 0.611294
405 3 0.294637 0.908371 0.111294
406 3 0.794635 0.908378 0.111294
407 3 0.205365 0.0916229 0.611294
408 3 0.705367 0.0916167 0.611293
409 3 0.0446355 0.591624 0.111294
410 3 0.544637 0.59163 0.111294
411 3 0.455365 0.408379 0.611293
412 3 0.955364 0.408373 0.611294
413 3 0.294638 0.40837 0.111295
414 3 0.794635 0.408376 0.111294
415 3 0.205364 0.591627 0.611294
416 3 0.705366 0.591621 0.611293
417 3 0.316729 0.381425 0.804312
418 3 0.816728 0.38143 0.804312
419 3 0.18327 0.61858 0.304312
420 3 0.683271 0.618574 0.304312
421 3 0.0667298 0.61858 0.804312
422 3 0.566729 0.618575 0.804312
423 3 0.433271 0.381425 0.304312
424 3 0.933272 0.381431 0.304312
425 3 0.316734 0.881403 0.804312
426 3 0.816733 0.881407 0.804312
427 3 0.183266 0.118598 0.304312
428 3 0.683267 0.118593 0.304312
429 3 0.0667337 0.118598 0.804312
430 3 0.566733 0.118593 0.804312
431 3 0.433266 0.881402 0.304312
432 3 0.933267 0.881407 0.304312
433 3 0.371586 0.260912 0.782209
434 3 0.871586 0.260911 0.78221
435 3 0.128414 0.739087 0.282209
436 3 0.628414 0.739088 0.28221
437 3 0.121586 0.739087 0.782209
438 3 0.621586 0.739088 0.78221
439 3 0.378414 0.260912 0.282209
440 3 0.878414 0.260911 0.282209
441 3 0.371587 0.760916 0.782208
442 3 0.871587 0.760915 0.782208
443 3 0.128413 0.239084 0.282208
444 3 0.628413 0.239085 0.282208
445 3 0.121587 0.239084 0.782208
446 3 0.621587 0.239085 0.782208
447 3 0.378413 0.760916 0.282208
448 3 0.878413 0.760915 0.282208
449 3 0.3792 0.0148458 0.99727
450 3 0.879202 0.0148453 0.997271
451 3 0.120801 0.985154 0.497268
452 3 0.6208 0.985154 0.49727
453 3 0.129199 0.985154 0.997268
454 3 0.6292 0.985154 0.99727
455 3 0.3708 0.0148458 0.49727
456 3 0.870798 0.0148453 0.497271
457 3 0.37919 0.514844 0.997259
458 3 0.879192 0.514845 0.997261
459 3 0.12081 0.485156 0.497258
460 3 0.620808 0.485155 0.497261
461 3 0.12919 0.485156 0.997259
462 3 0.629192 0.485155 0.997261
463 3 0.37081 0.514844 0.497259
464 3 0.870808 0.514845 0.497261
465 3 0.332268 0.867941 0.97319
466 3 0.832269 0.867937 0.973191
467 3 0.167732 0.132054 0.473189
468 3 0.667731 0.132059 0.47319
469 3 0.0822683 0.132054 0.973189
470 3 0.582269 0.132059 0.97319
471 3 0.417732 0.867941 0.47319
472 3 0.917731 0.867937 0.473191
473 3 0.332268 0.367974 0.973184
474 3 0.832268 0.367967 0.973185
475 3 0.167732 0.632025 0.473184
476 3 0.667732 0.632033 0.473185
477 3 0.0822681 0.632026 0.973184
478 3 0.582268 0.632033 0.973185
479 3 0.417732 0.367974 0.473184
480 3 0.917732 0.367966 0.473185
481 3 0.180707 0.982256 0.859374
482 3 0.680708 0.98226 0.859375
483 3 0.319293 0.0177468 0.359373
484 3 0.819293 0.017743 0.359374
485 3 0.430707 0.0177432 0.859374
486 3 0.930707 0.0177465 0.859373
487 3 0.0692923 0.98226 0.359375
488 3 0.569293 0.982256 0.359374
489 3 0.180706 0.482239 0.85937
490 3 0.680706 0.482242 0.859371
491 3 0.319294 0.517761 0.35937
492 3 0.819294 0.517758 0.359371
493 3 0.430706 0.517758 0.859371
494 3 0.930706 0.517761 0.85937
495 3 0.069294 0.482242 0.359371
496 3 0.569294 0.482239 0.35937
497 3 0.16936 0.158388 0.901322
498 3 0.669361 0.158385 0.901321
499 3 0.330641 0.841609 0.401323
500 3 0.83064 0.841612 0.401322
501 3 0.41936 0.841612 0.901322
502 3 0.919359 0.841609 0.901323
503 3 0.0806393 0.158385 0.401321
504 3 0.58064 0.158388 0.401322
505 3 0.169356 0.658403 0.901326
506 3 0.669357 0.6584 0.901325
507 3 0.330644 0.341597 0.401326
508 3 0.830643 0.3416 0.401325
509 3 0.419357 0.3416 0.901325
510 3 0.919356 0.341597 0.901326
511 3 0.0806431 0.6584 0.401325
512 3 0.580644 0.658403 0.401326
513 4 0.136285 0.971993 0.247012
514 4 0.636285 0.971993 0.247012
515 4 0.363715 0.0280074 0.747012
516 4 0.863715 0.0280074 0.747012
517 4 0.386285 0.0280073 0.247012
518 4 0.886285 0.0280074 0.247012
519 4 0.113715 0.971993 0.747012
520 4 0.613715 0.971993 0.747012
521 4 0.136285 0.471993 0.247012
522 4 0.636285 0.471993 0.247012
523 4 0.363715 0.528007 0.747012
524 4 0.863715 0.528007 0.747012
525 4 0.386285 0.528007 0.247012
526 4 0.886285 0.528007 0.247012
527 4 0.113715 0.471993 0.747012
528 4 0.613715 0.471993 0.747012
529 4 0.104804 0.919889 0.180008
530 4 0.604804 0.919889 0.180008
531 4 0.395196 0.0801109 0.680008
532 4 0.895196 0.0801109 0.680008
533 4 0.354804 0.0801108 0.180008
534 4 0.854804 0.0801109 0.180008
535 4 0.145196 0.919889 0.680008
536 4 0.645196 0.919889 0.680008
537 4 0.104804 0.419889 0.180008
538 4 0.604804 0.419889 0.180008
539 4 0.395196 0.580111 0.680008
540 4 0.895196 0.580111 0.680008
541 4 0.354805 0.580111 0.180008
542 4 0.854804 0.580111 0.180008
543 4 0.145196 0.419889 0.680008
544 4 0.645196 0.419889 0.680008
545 4 0.089812 0.0498336 0.230794
546 4 0.589812 0.0498336 0.230794
547 4 0.410188 0.950166 0.730794
548 4 0.910188 0.950166 0.730794
549 4 0.339812 0.950166 0.230794
550 4 0.839812 0.950166 0.230794
551 4 0.160188 0.0498336 0.730794
552 4 0.660188 0.0498337 0.730794
553 4 0.0898119 0.549834 0.230794
554 4 0.589812 0.549833 0.230794
555 4 0.410188 0.450166 0.730794
556 4 0.910188 0.450166 0.730794
557 4 0.339812 0.450167 0.230794
558 4 0.839812 0.450166 0.230794
559 4 0.160188 0.549833 0.730794
560 4 0.660188 0.549834 0.730794
561 4 0.251048 0.099165 0.108591
562 4 0.751048 0.0991651 0.108591
563 4 0.248952 0.900835 0.608591
564 4 0.748952 0.900835 0.608591
565 4 0.501048 0.900835 0.108591
566 4 0.00104773 0.900835 0.108591
567 4 0.998952 0.0991651 0.608591
568 4 0.498952 0.0991648 0.608591
569 4 0.251048 0.599165 0.108591
570 4 0.751048 0.599165 0.108591
571 4 0.248952 0.400835 0.608591
572 4 0.748952 0.400835 0.608591
573 4 0.501048 0.400835 0.108591
574 4 0.00104791 0.400835 0.108591
575 4 0.998952 0.599165 0.608591
576 4 0.498952 0.599165 0.608591
577 4 0.133392 0.288914 0.049346
578 4 0.633392 0.288914 0.0493458
579 4 0.366608 0.711086 0.549346
580 4 0.866608 0.711086 0.549346
581 4 0.383392 0.711086 0.0493457
582 4 0.883392 0.711086 0.0493459
583 4 0.116608 0.288914 0.549346
584 4 0.616608 0.288914 0.549346
585 4 0.133392 0.788914 0.0493458
586 4 0.633392 0.788914 0.0493457
587 4 0.366608 0.211086 0.549346
588 4 0.866608 0.211086 0.549346
589 4 0.383392 0.211085 0.0493457
590 4 0.883392 0.211086 0.0493459
591 4 0.116608 0.788914 0.549346
592 4 0.616608 0.788914 0.549346
593 4 0.248024 0.280852 0.753727
594 4 0.748024 0.280852 0.753727
595 4 0.251976 0.719148 0.253727
596 4 0.751976 0.719148 0.253727
597 4 0.498024 0.719148 0.753727
598 4 0.998024 0.719148 0.753727
599 4 0.00197577 0.280852 0.253727
600 4 0.501976 0.280852 0.253727
601 4 0.248024 0.780851 0.753727
602 4 0.748024 0.780851 0.753727
603 4 0.251976 0.219149 0.253727
604 4 0.751976 0.219149 0.253727
605 4 0.498024 0.219149 0.753727
606 4 0.998024 0.219149 0.753727
607 4 0.00197569 0.780851 0.253727
608 4 0.501976 0.780851 0.253727
609 4 0.203322 0.200243 0.781659
610 4 0.703322 0.200243 0.781659
611 4 0.296678 0.799757 0.281659
612 4 0.796678 0.799757 0.281659
613 4 0.453322 0.799757 0.781659
614 4 0.953322 0.799757 0.781659
615 4 0.0466781 0.200243 0.281659
616 4 0.546678 0.200243 0.281659
617 4 0.203322 0.700243 0.78166
618 4 0.703322 0.700243 0.78166
619 4 0.296678 0.299757 0.28166
620 4 0.796678 0.299757 0.28166
621 4 0.453322 0.299757 0.78166
622 4 0.953322 0.299757 0.78166
623 4 0.0466777 0.700243 0.28166
624 4 0.546678 0.700243 0.28166
625 4 0.214565 0.319298 0.826651
626 4 0.714565 0.319298 0.826651
627 4 0.285435 0.680702 0.326651
628 4 0.785435 0.680702 0.326651
629 4 0.464565 0.680702 0.826651
630 4 0.964565 0.680702 0.826651
631 4 0.0354352 0.319298 0.326651
632 4 0.535435 0.319298 0.326651
633 4 0.214565 0.819297 0.826651
634 4 0.714565 0.819297 0.826651
635 4 0.285435 0.180703 0.326651
636 4 0.785435 0.180703 0.326651
637 4 0.464565 0.180703 0.826651
638 4 0.964565 0.180703 0.826651
639 4 0.0354349 0.819297 0.326651
640 4 0.535435 0.819297 0.326651
641 4 0.373644 0.146082 0.893787
642 4 0.873644 0.146082 0.893787
643 4 0.126357 0.853918 0.393787
644 4 0.626356 0.853918 0.393787
645 4 0.123644 0.853918 0.893787
646 4 0.623644 0.853918 0.893787
647 4 0.376356 0.146082 0.393787
648 4 0.876356 0.146082 0.393787
649 4 0.373643 0.646081 0.893787
650 4 0.873643 0.646081 0.893787
651 4 0.126357 0.353919 0.393787
652 4 0.626357 0.353919 0.393787
653 4 0.123643 0.353919 0.893787
654 4 0.623643 0.353919 0.893787
655 4 0.376357 0.646081 0.393787
656 4 0.876357 0.646081 0.393787
657 4 0.253308 0.953686 0.944611
658 4 0.753308 0.953686 0.944611
659 4 0.246692 0.0463144 0.444611
660 4 0.746692 0.0463143 0.444611
661 4 0.00330841 0.0463144 0.944611
662 4 0.503308 0.0463143 0.944611
663 4 0.496692 0.953686 0.444611
664 4 0.996692 0.953686 0.444611
665 4 0.253309 0.453685 0.944611
666 4 0.753309 0.453685 0.944611
667 4 0.246691 0.546315 0.444611
668 4 0.746691 0.546315 0.444611
669 4 0.00330889 0.546315 0.944611
670 4 0.503309 0.546315 0.944611
671 4 0.496691 0.453685 0.444611
672 4 0.996691 0.453685 0.444611
ITEM: TIMESTEP
1000
ITEM: NUMBER OF ATOMS
672
ITEM: BOX BOUNDS xy xz yz pp pp pp
-5.8129990783324814e-01 3.0805753053566917e+01 1.2392054203409207e-01
6.8100610730779110e-02 1.2325448109552969e+01 1.1853225269957078e-01
1.1354841594048004e-01 1.9903451782459566e+01 2.3954843798374448e-01
ITEM: ATOMS id type xs ys zs
1 1 0.143074 0.0750962 0.156309
2 1 0.64359 0.0597495 0.154465
3 1 0.350941 0.940684 0.655988
4 1 0.860392 0.94451 0.657147
5 1 0.396984 0.948481 0.155391
6 1 0.887557 0.949272 0.157046
7 1 0.111087 0.0716795 0.653529
8 1 0.605633 0.0605832 0.65026
9 1 0.144237 0.565207 0.162104
10 1 0.643032 0.567162 0.155559
11 1 0.352265 0.443216 0.656414
12 1 0.855213 0.432339 0.661278
13 1 0.395734 0.450173 0.162985
14 1 0.891843 0.454698 0.165478
15 1 0.108749 0.565759 0.650792
16 1 0.607313 0.561171 0.656438
17 1 0.187792 0.0461735 0.151526
18 1 0.687691 0.0285144 0.152727
19 1 0.306023 0.964836 0.651949
20 1 0.816201 0.978707 0.654325
21 1 0.441343 0.978376 0.155179
22 1 0.93202 0.97355 0.147847
23 1 0.06982 0.0277175 0.646025
24 1 0.563992 0.0154594 0.645143
25 1 0.186419 0.525096 0.150943
26 1 0.686507 0.531689 0.154096
27 1 0.308217 0.472946 0.650726
28 1 0.810286 0.448589 0.656475
29 1 0.438561 0.482906 0.153243
30 1 0.936057 0.481693 0.158751
31 1 0.0641617 0.544265 0.645155
32 1 0.565808 0.520815 0.652282
33 1 0.212161 0.113163 0.10512
34 1 0.711562 0.0881777 0.103354
35 1 0.285476 0.899887 0.603482
36 1 0.788751 0.907133 0.61717
37 1 0.467292 0.907573 0.113359
38 1 0.954727 0.898886 0.10472
39 1 0.0438712 0.0743014 0.593852
40 1 0.537868 0.0676928 0.595121
41 1 0.211046 0.590277 0.102422
42 1 0.714447 0.596806 0.113024
43 1 0.286469 0.405195 0.603525
44 1 0.787696 0.38356 0.610536
45 1 0.463395 0.426796 0.103005
46 1 0.957875 0.426067 0.104894
47 1 0.0407518 0.613102 0.599086
48 1 0.538819 0.579388 0.606564
49 1 0.195189 0.199746 0.0627517
50 1 0.694157 0.178739 0.0649494
51 1 0.303119 0.813899 0.562959
52 1 0.804388 0.819443 0.576097
53 1 0.454086 0.8143 0.0763501
54 1 0.936928 0.803366 0.0758778
55 1 0.0563335 0.174146 0.560829
56 1 0.550428 0.16975 0.563166
57 1 0.197284 0.686466 0.0678194
58 1 0.702869 0.694681 0.0762577
59 1 0.301549 0.306246 0.572594
60 1 0.807456 0.299844 0.569161
61 1 0.449938 0.320485 0.0805544
62 1 0.941495 0.333754 0.0677478
63 1 0.0591918 0.699635 0.559286
64 1 0.548185 0.680864 0.571531
65 1 0.149772 0.22375 0.0718304
66 1 0.649777 0.211496 0.0734416
67 1 0.347539 0.791343 0.572218
68 1 0.847722 0.782906 0.586281
69 1 0.409328 0.787162 0.0864117
70 1 0.893919 0.772697 0.0939692
71 1 0.0972441 0.224346 0.57577
72 1 0.592056 0.213785 0.573175
73 1 0.153169 0.721175 0.0839088
74 1 0.658521 0.730703 0.0851207
75 1 0.34596 0.278749 0.587429
76 1 0.853184 0.283578 0.574317
77 1 0.404615 0.292319 0.0875408
78 1 0.898221 0.308142 0.0814267
79 1 0.104555 0.718236 0.570826
80 1 0.590522 0.716932 0.581173
81 1 0.123384 0.161686 0.118554
82 1 0.62346 0.145566 0.115898
83 1 0.370968 0.852489 0.619877
84 1 0.87641 0.849422 0.623773
85 1 0.380843 0.852519 0.123957
86 1 0.868275 0.849871 0.131675
87 1 0.125818 0.168483 0.618251
88 1 0.622657 0.155426 0.614643
89 1 0.125892 0.660447 0.125746
90 1 0.628651 0.666984 0.120891
91 1 0.371721 0.347321 0.626966
92 1 0.877487 0.352054 0.618706
93 1 0.377516 0.362314 0.125496
94 1 0.873482 0.36675 0.129391
95 1 0.129809 0.651149 0.614863
96 1 0.621749 0.660015 0.621732
97 1 0.114241 0.000962749 0.200803
98 1 0.616908 0.998055 0.209057
99 1 0.379239 0.0121445 0.703765
100 1 0.892396 0.00938143 0.704175
101 1 0.364399 0.024186 0.200691
102 1 0.858777 0.0269145 0.2025
103 1 0.143604 0.00456999 0.700067
104 1 0.640167 0.000243585 0.697825
105 1 0.113269 0.502321 0.212476
106 1 0.607205 0.500894 0.194071
107 1 0.377833 0.515395 0.707465
108 1 0.882048 0.514697 0.705271
109 1 0.364024 0.50331 0.216181
110 1 0.859178 0.523543 0.209778
111 1 0.134879 0.493113 0.703093
112 1 0.64039 0.501267 0.706669
113 1 0.266201 0.176819 0.855256
114 1 0.785806 0.196596 0.848315
115 1 0.222283 0.81746 0.335939
116 1 0.721642 0.823689 0.342807
117 1 0.0289188 0.824119 0.839432
118 1 0.529442 0.782842 0.846473
119 1 0.480477 0.179065 0.34759
120 1 0.974939 0.169385 0.335109
121 1 0.268536 0.68092 0.84997
122 1 0.772946 0.697117 0.844932
123 1 0.225312 0.296421 0.338924
124 1 0.726698 0.333345 0.345035
125 1 0.0254891 0.343727 0.855048
126 1 0.522473 0.301887 0.841445
127 1 0.483861 0.692212 0.349835
128 1 0.978182 0.674457 0.352899
129 1 0.311239 0.20143 0.855961
130 1 0.830532 0.212273 0.848894
131 1 0.178418 0.787752 0.349797
132 1 0.677745 0.790935 0.347853
133 1 0.0732343 0.801386 0.852005
134 1 0.574747 0.763151 0.857646
135 1 0.435768 0.208507 0.34738
136 1 0.930237 0.187973 0.34771
137 1 0.313297 0.707257 0.851539
138 1 0.818923 0.701557 0.848992
139 1 0.180503 0.277876 0.342671
140 1 0.680662 0.316907 0.348374
141 1 0.0704933 0.324122 0.854522
142 1 0.566993 0.286305 0.850417
143 1 0.437582 0.720243 0.353407
144 1 0.932686 0.696552 0.351588
145 1 0.337467 0.147846 0.907758
146 1 0.855337 0.131147 0.885596
147 1 0.154581 0.85749 0.394738
148 1 0.651276 0.854548 0.394287
149 1 0.0970695 0.862951 0.901739
150 1 0.594728 0.835007 0.902737
151 1 0.409665 0.145697 0.390206
152 1 0.906861 0.115448 0.391822
153 1 0.340233 0.645192 0.894016
154 1 0.843735 0.634073 0.89462
155 1 0.155564 0.353072 0.386502
156 1 0.654932 0.383815 0.390696
157 1 0.095022 0.390837 0.899607
158 1 0.588755 0.361844 0.892571
159 1 0.41416 0.651295 0.401081
160 1 0.90669 0.619685 0.391488
161 1 0.323435 0.0395768 0.931587
162 1 0.83801 0.0377811 0.921892
163 1 0.170163 0.958255 0.420529
164 1 0.671517 0.945314 0.428424
165 1 0.0764082 0.958167 0.930334
166 1 0.573029 0.934268 0.929552
167 1 0.423024 0.0447358 0.423645
168 1 0.926067 0.014555 0.417977
169 1 0.324585 0.548157 0.929508
170 1 0.820937 0.541827 0.924974
171 1 0.172949 0.445417 0.417129
172 1 0.672719 0.476085 0.427947
173 1 0.0769238 0.489006 0.931483
174 1 0.571764 0.45198 0.932075
175 1 0.427972 0.541061 0.417313
176 1 0.92437 0.520277 0.421084
177 1 0.280162 0.0137381 0.920845
178 1 0.792295 0.0203019 0.914398
179 1 0.214609 0.977795 0.409982
180 1 0.71638 0.969281 0.420461
181 1 0.0329097 0.980128 0.913851
182 1 0.529341 0.957098 0.912425
183 1 0.468735 0.0175083 0.418065
184 1 0.97205 0.996481 0.402174
185 1 0.278624 0.524355 0.923857
186 1 0.775058 0.532241 0.92086
187 1 0.217205 0.471933 0.402039
188 1 0.716095 0.49562 0.418199
189 1 0.0331114 0.512103 0.919539
190 1 0.52658 0.464796 0.918837
191 1 0.471989 0.514684 0.404656
192 1 0.970055 0.497476 0.417994
193 1 0.249629 0.0812578 0.885635
194 1 0.766223 0.0973171 0.877656
195 1 0.242823 0.902687 0.373516
196 1 0.743568 0.911998 0.375471
197 1 0.506875 0.8762 0.875015
198 1 0.00722341 0.917224 0.869424
199 1 0.993862 0.0727533 0.361674
200 1 0.497858 0.0748282 0.378152
201 1 0.249153 0.589636 0.885078
202 1 0.751077 0.60814 0.881093
203 1 0.245764 0.390327 0.371019
204 1 0.743271 0.430611 0.375767
205 1 0.503047 0.393428 0.874264
206 1 0.00551261 0.438794 0.88623
207 1 0.995705 0.574904 0.382754
208 1 0.500519 0.592287 0.376821
209 1 0.241019 0.26221 0.808987
210 1 0.761839 0.27772 0.798651
211 1 0.245739 0.737762 0.287154
212 1 0.749052 0.736011 0.301688
213 1 0.50739 0.703607 0.798089
214 1 0.00273248 0.746636 0.793331
215 1 0.997761 0.256685 0.28953
216 1 0.510718 0.256938 0.305737
217 1 0.238251 0.768177 0.809572
218 1 0.747529 0.785529 0.801377
219 1 0.25043 0.209261 0.293686
220 1 0.755453 0.249109 0.306744
221 1 0.501911 0.219338 0.791268
222 1 0.998181 0.266989 0.809396