LAMMPS data file via write_data, version 15 Apr 2020, timestep = 80000

672 atoms
4 atom types

1.3380749314786708e+00 2.8643925419520855e+01 xlo xhi
-1.2202701297396290e+00 1.3374270412039401e+01 ylo yhi
2.9864412972486321e-01 1.9718356068674296e+01 zlo zhi
-8.0776314914255860e-03 -2.4937972793799397e-02 1.1495530715982123e-01 xy xz yz

Masses

1 12.0107
2 14.0067
3 15.9994
4 1.00794

Atoms # full

1 1 1 1.0611291587669947e-01 5.4251168721645913e+00 9.6289485333989422e-01 3.4746787432230559e+00 0 0 0
2 1 1 9.7289727293540351e-02 1.8851649659622929e+01 7.4218721887707573e-01 3.3761854046796271e+00 0 0 0
3 1 1 1.1803423328831308e-01 1.0755162921418554e+01 1.1372668698509411e+01 1.3087233720620723e+01 0 0 0
4 1 1 1.1190132737031544e-01 2.4568359226457432e+01 1.1400851630338650e+01 1.3004025137612398e+01 0 0 0
5 1 1 1.1279126409540946e-01 1.2392580900112460e+01 1.1478164062555379e+01 3.5011495642784061e+00 0 0 0
6 1 1 1.0241219643057706e-01 2.5688934226270181e+01 1.1527977720084273e+01 3.0422938034083589e+00 0 0 0
7 1 1 1.1733765155333935e-01 4.0872884844747848e+00 8.9239391139028967e-01 1.3074954541397977e+01 0 0 0
8 1 1 1.0225011365659541e-01 1.7868272232457304e+01 1.1057774620441072e+00 1.2920636164016280e+01 0 0 0
9 1 1 9.0590161005631553e-02 5.8508399923564003e+00 7.5827403517523484e+00 3.5733752182241734e+00 0 0 0
10 1 1 9.0181723125531327e-02 1.8932494258134057e+01 8.2032820110454310e+00 3.4592303779454592e+00 0 0 0
11 1 1 1.0109656029337806e-01 1.0810317347160115e+01 4.1601269363194042e+00 1.2710802470279752e+01 0 0 0
12 1 1 9.4396223154820588e-02 2.4458859522515038e+01 4.2281987396265439e+00 1.3171784188646551e+01 0 0 0
13 1 1 1.0230364763824723e-01 1.2361495575528545e+01 3.8057963639607175e+00 3.1249889306183918e+00 0 0 0
14 1 1 1.0959365310164303e-01 2.5756693547738106e+01 4.2057377668664238e+00 3.2539056221434066e+00 0 0 0
15 1 1 1.0051197125218546e-01 3.7693538319401898e+00 8.1128206760193962e+00 1.3282012315649833e+01 0 0 0
16 1 1 9.8887020744555465e-02 1.7473636207402972e+01 8.3645724457706905e+00 1.3101013402201794e+01 0 0 0
17 1 1 2.4191555866361465e-02 6.6281458778325497e+00 2.2401466856270602e-01 3.3561649322442735e+00 0 0 0
18 1 1 1.2931261486705450e-02 2.0051705712026372e+01 -2.5761415217794736e-02 3.0976024149628580e+00 0 0 0
19 1 1 2.3473315719753456e-02 9.5155135170866973e+00 1.2059668685977766e+01 1.2807417389634196e+01 0 0 0
20 1 1 1.8244614794336474e-02 2.3400008980368622e+01 1.2096161003462267e+01 1.2655087244332259e+01 0 0 0
21 1 1 1.9082594999436722e-02 1.3637943010443921e+01 1.2082346253226127e+01 3.1009529959476043e+00 0 0 0
22 1 1 1.8585399152902235e-02 2.6918980346825577e+01 1.2254455465286732e+01 2.8080168847447617e+00 0 0 0
23 1 1 2.6497147893526946e-02 2.8545888435278020e+00 1.6763703743133007e-01 1.2776148117760314e+01 0 0 0
24 1 1 2.2008344561191412e-02 1.6693643710237421e+01 3.2035456928174844e-01 1.2544447922416818e+01 0 0 0
25 1 1 8.9636505795290741e-03 7.1016248269551667e+00 6.9461681493266960e+00 3.2815201457713012e+00 0 0 0
26 1 1 2.3863726594778104e-03 2.0144218145620499e+01 7.5509991792068574e+00 3.1964489021921998e+00 0 0 0
27 1 1 4.0800926888663200e-02 9.5145274476167643e+00 4.8173465189209006e+00 1.2604971817884147e+01 0 0 0
28 1 1 1.8084619958295561e-02 2.3370212229226450e+01 5.0957386885825509e+00 1.2846857660205838e+01 0 0 0
29 1 1 3.4211374217162534e-02 1.3531515712829082e+01 4.6682528639808814e+00 3.1055537667110027e+00 0 0 0
30 1 1 4.1034303554025944e-02 2.6868115050099604e+01 5.0508209104998194e+00 2.9264794519562010e+00 0 0 0
31 1 1 2.6290327777968241e-02 2.7860533052006611e+00 7.1276814233918531e+00 1.2880312141989975e+01 0 0 0
32 1 1 8.0292197093467105e-03 1.6267343778380024e+01 7.5827650018060586e+00 1.3129681733272577e+01 0 0 0
33 1 1 -1.3582170931241758e-02 7.5849881174112941e+00 7.6333900473159666e-01 2.4628517419360207e+00 0 0 0
34 1 1 -3.1434059739571314e-02 2.1001259594535597e+01 4.6740770617714977e-01 2.1905110788733908e+00 0 0 0
35 1 1 -2.2796450475281397e-02 8.5387143567646575e+00 1.1405952116582572e+01 1.2000309626030964e+01 0 0 0
36 1 1 -3.1314278515736975e-02 2.2551275970364291e+01 1.1375471898199201e+01 1.1772723700861706e+01 0 0 0
37 1 1 -2.0862247072184897e-02 1.4454265232167790e+01 1.1508201979887680e+01 2.0891106612171777e+00 0 0 0
38 1 1 -2.8726436632272416e-02 2.7901481027739514e+01 1.1612954650552961e+01 2.0145915154187133e+00 0 0 0
39 1 1 -2.1604933680489505e-02 1.9769638890218131e+00 7.3780726563720544e-01 1.1847804032814199e+01 0 0 0
40 1 1 -1.6442850165482938e-02 1.5735020631467629e+01 9.2265923985585685e-01 1.1732723080278507e+01 0 0 0
41 1 1 -3.7101851547543252e-02 8.0561530054426722e+00 7.5987343546476387e+00 2.4384571232574737e+00 0 0 0
42 1 1 -2.2499005658336804e-02 2.1109665806724948e+01 8.1744981583543002e+00 2.3611295549643838e+00 0 0 0
43 1 1 -1.7728132009147052e-02 8.6010252812570851e+00 4.3414921928296790e+00 1.1681977787221893e+01 0 0 0
44 1 1 -2.8694815603438784e-02 2.2417435616042059e+01 4.4514756039254708e+00 1.2015731509792138e+01 0 0 0
45 1 1 -1.8553339464772972e-02 1.4471918130132886e+01 4.2236165188663035e+00 2.1641079846496387e+00 0 0 0
46 1 1 -1.1047620587617792e-02 2.7866137540429438e+01 4.4850910045534924e+00 2.0970399543710672e+00 0 0 0
47 1 1 -1.4027516375965002e-02 1.7534333183692292e+00 7.5547361932895969e+00 1.2026546111999838e+01 0 0 0
48 1 1 -2.1393914396282937e-02 1.5204995428689589e+01 7.9822764046042929e+00 1.2230366404103561e+01 0 0 0
49 1 1 4.9497308511717908e-02 7.4252583908877723e+00 1.9988869573118739e+00 1.7264496569027856e+00 0 0 0
50 1 1 3.6117791904394320e-02 2.0759931618914433e+01 1.6830747341259134e+00 1.4798852379694405e+00 0 0 0
51 1 1 4.2503198275738216e-02 8.7175645095431822e+00 1.0105845254831323e+01 1.1501399515147423e+01 0 0 0
52 1 1 5.4167251512176648e-02 2.2866457283880788e+01 1.0125365630068131e+01 1.1130412503502489e+01 0 0 0
53 1 1 5.8688356524494695e-02 1.4216277555805817e+01 1.0184451373883508e+01 1.6537188078563496e+00 0 0 0
54 1 1 4.0496085448046740e-02 2.7753766495450829e+01 1.0309281131629621e+01 1.4847281604057065e+00 0 0 0
55 1 1 4.3922159384871498e-02 2.2529405043497226e+00 1.9870648674633329e+00 1.1163214811717994e+01 0 0 0
56 1 1 4.5232485701150175e-02 1.5866941687676848e+01 2.2403668148289499e+00 1.1178104989591912e+01 0 0 0
57 1 1 4.7122293600627328e-02 7.8201181008686991e+00 8.9122835642754197e+00 1.9244567655519205e+00 0 0 0
58 1 1 4.2942383159287334e-02 2.0955527496870129e+01 9.4955035294620345e+00 1.8176259014547345e+00 0 0 0
59 1 1 3.8844728114461172e-02 8.7905128636098375e+00 3.1375824349333996e+00 1.0970687751385316e+01 0 0 0
60 1 1 4.1448876387955746e-02 2.2573887367947975e+01 3.2194816186019750e+00 1.1332256424808376e+01 0 0 0
61 1 1 2.3574720576792083e-02 1.4480413225980142e+01 3.0440456312047699e+00 1.3648384596515231e+00 0 0 0
62 1 1 3.8114536618385396e-02 2.7876482423179702e+01 3.1458242127430465e+00 1.6805759334901442e+00 0 0 0
63 1 1 5.3819603460308160e-02 1.7200621540755532e+00 8.8443956305057156e+00 1.1438639236215197e+01 0 0 0
64 1 1 4.6217532551069182e-02 1.5376751404525626e+01 9.0286152419773984e+00 1.1261690081021110e+01 0 0 0
65 1 1 -2.8343581831177089e-02 6.2321227594810136e+00 2.7536149224438526e+00 2.0888742069288235e+00 0 0 0
66 1 1 -3.6458823545580187e-02 1.9636656895199518e+01 2.4940531606640746e+00 1.8227992358926359e+00 0 0 0
67 1 1 -4.4281744517462800e-02 9.8993724362737687e+00 9.3841090095531676e+00 1.1923272800770025e+01 0 0 0
68 1 1 -2.2126787717462276e-02 2.3987188567705555e+01 9.4270751149050547e+00 1.1658199640483502e+01 0 0 0
69 1 1 -3.0758923146695025e-02 1.3077542235061133e+01 9.5112070176899302e+00 2.2060183823553148e+00 0 0 0
70 1 1 -3.0881440282836743e-02 2.6559777083655693e+01 9.6079497047486448e+00 1.8857572018596109e+00 0 0 0
71 1 1 -2.8244026425771594e-02 3.3589486318587873e+00 2.7276476662367388e+00 1.1613841081570689e+01 0 0 0
72 1 1 -3.0275482684455707e-02 1.6893224639318621e+01 3.0279066598018325e+00 1.1771483941744860e+01 0 0 0
73 1 1 -3.8520481470118627e-02 6.6522928867473361e+00 9.5766906700152177e+00 2.4886299812025561e+00 0 0 0
74 1 1 -4.3206034863803949e-02 1.9796630573147301e+01 1.0153948803302811e+01 2.2485443029439871e+00 0 0 0
75 1 1 -2.6005198011667157e-02 9.9270524943581115e+00 2.3776593379583648e+00 1.1329411397045963e+01 0 0 0
76 1 1 -4.2508960146617203e-02 2.3686057660329425e+01 2.3752504523509717e+00 1.1756740600410653e+01 0 0 0
77 1 1 -5.0659265073578222e-02 1.3367506872777204e+01 2.1834571125918796e+00 1.6591281087934913e+00 0 0 0
78 1 1 -3.6338842975977420e-02 2.6737983296871914e+01 2.3803635033655568e+00 2.0920897053439633e+00 0 0 0
79 1 1 -3.6445497497965079e-02 2.7034946609126234e+00 9.7963610847039817e+00 1.1869996474748802e+01 0 0 0
80 1 1 -3.5001567818854697e-02 1.6545923336595514e+01 9.8701121251767603e+00 1.1387804484107926e+01 0 0 0
81 1 1 3.2280259327182405e-02 5.2107624756956934e+00 2.3251182233492185e+00 2.9465311940335983e+00 0 0 0
82 1 1 1.9116506160828141e-02 1.8684237251393270e+01 2.0324898593768852e+00 2.7967566337122531e+00 0 0 0
83 1 1 1.8587255823697350e-02 1.0967755759131135e+01 1.0006516662457589e+01 1.2696784949634889e+01 0 0 0
84 1 1 1.4463747219776155e-02 2.4900923790871417e+01 1.0052410849195798e+01 1.2550162514856664e+01 0 0 0
85 1 1 1.7834774468977261e-02 1.2151046845623478e+01 1.0091198277975455e+01 3.0351461484159032e+00 0 0 0
86 1 1 1.4703463615856137e-02 2.5504466369107782e+01 1.0146890449147794e+01 2.6913537769983460e+00 0 0 0
87 1 1 2.8021320651785805e-02 4.3157384049249199e+00 2.1917535516029085e+00 1.2520290032907134e+01 0 0 0
88 1 1 1.8315399408043952e-02 1.7961510871374553e+01 2.4814984050301838e+00 1.2600170486697012e+01 0 0 0
89 1 1 4.1362205556298715e-03 5.6083775342997715e+00 8.9586415362897682e+00 3.2089080032485522e+00 0 0 0
90 1 1 1.3307502418159457e-02 1.8706135707823272e+01 9.5232332868077627e+00 2.9575230177881435e+00 0 0 0
91 1 1 2.1509179136439092e-02 1.0978793397355737e+01 2.8263667528631968e+00 1.2177082210090919e+01 0 0 0
92 1 1 6.4317533583124788e-03 2.4661078177353357e+01 2.8961401777997047e+00 1.2669497757766495e+01 0 0 0
93 1 1 2.7403223583079016e-02 1.2287062661317604e+01 2.5350041765291911e+00 2.4749860895337221e+00 0 0 0
94 1 1 2.7280245174367106e-02 2.5638700537257950e+01 2.8778908877767400e+00 2.8495460054887194e+00 0 0 0
95 1 1 2.6115819324835039e-02 3.8663866245504881e+00 9.3979658947190714e+00 1.2650104688881722e+01 0 0 0
96 1 1 2.4327648038014352e-02 1.7637211483988491e+01 9.5040091030897855e+00 1.2213139518422272e+01 0 0 0
97 1 1 -2.6120314100923714e-01 4.2945164875237989e+00 2.6092143771310283e-01 4.2604646581028343e+00 0 1 0
98 1 1 -2.6401621661770752e-01 1.7656669481276467e+01 1.5545847164301962e-01 4.1405247463083281e+00 0 1 0
99 1 1 -2.6344868662432219e-01 1.1937559641554714e+01 1.2265749504767427e+01 1.3615534643292287e+01 0 -1 0
100 1 1 -2.6514914205072188e-01 2.5707473005977942e+01 1.2194008788434733e+01 1.3708867661194521e+01 0 -1 0
101 1 1 -2.6610967128477625e-01 1.1266109210547294e+01 1.2177924891110404e+01 4.2712599634578972e+00 0 -1 0
102 1 1 -2.8073565758219998e-01 2.4531952591496299e+01 1.2212680778978640e+01 3.8464943039907560e+00 0 -1 0
103 1 1 -2.5802722986310006e-01 5.0779064722709872e+00 1.9058839761794677e-01 1.4086568104977296e+01 0 1 0
104 1 1 -2.7266026243349140e-01 1.8973087031398396e+01 2.5746654679459668e-01 1.3656601098845908e+01 0 1 0
105 1 1 -2.8145493383694975e-01 4.7360580581831968e+00 6.7851235154958873e+00 4.3153930325694487e+00 0 0 0
106 1 1 -2.6694530869904309e-01 1.7846277128522029e+01 7.4593971986866920e+00 4.2408732394488418e+00 0 0 0
107 1 1 -2.6916901550307720e-01 1.1926041936017857e+01 4.8164777105766863e+00 1.3574086914234911e+01 0 0 0
108 1 1 -2.5058287472681923e-01 2.5696853829373531e+01 4.8547055055918671e+00 1.3895526478197832e+01 0 0 0
109 1 1 -2.6952582536058689e-01 1.1110735891417120e+01 4.2200387142891129e+00 3.9588951865640216e+00 0 0 0
110 1 1 -2.7261821265724046e-01 2.4530417484294738e+01 4.7948858440009472e+00 4.0421338804452436e+00 0 0 0
111 1 1 -2.6020779037703390e-01 4.9597686152684917e+00 7.6489653805054969e+00 1.4148183613643365e+01 0 0 0
112 1 1 -2.5097669829962665e-01 1.8757594039005212e+01 7.8518844640442902e+00 1.3849173545499113e+01 0 0 0
113 1 1 1.1079519571199800e-01 9.3349849003252494e+00 5.5349660198069284e-01 1.7051016274287150e+01 0 0 0
114 1 1 1.0252256516560662e-01 2.3265117859785200e+01 1.0084630515158453e+00 1.6855113311022638e+01 0 0 0
115 1 1 1.1828496102742053e-01 6.8345596544168519e+00 1.1495509893292393e+01 7.3731748834822284e+00 0 0 0
116 1 1 1.1078143725648232e-01 2.0562133069583066e+01 1.1654889751657407e+01 6.9567799219609956e+00 0 0 0
117 1 1 8.8111893414988374e-02 2.7306675952571968e+00 1.1753092016284956e+01 1.6960459570057047e+01 0 0 0
118 1 1 9.0198257079213473e-02 1.5967128196973452e+01 1.1741317103615170e+01 1.6420575559540456e+01 0 0 0
119 1 1 1.1648788765780528e-01 1.3606783602719968e+01 4.0947614928436638e-01 7.2442799649327476e+00 0 0 0
120 1 1 1.0608135825467738e-01 2.7463062973807702e+01 3.8645131592602078e-01 6.8566207677365538e+00 0 0 0
121 1 1 1.1051279043855418e-01 9.5113589773597287e+00 7.7740763788888243e+00 1.6757604261207288e+01 0 0 0
122 1 1 1.0466404191538538e-01 2.3038919484719795e+01 8.1606243999097927e+00 1.6976543656942763e+01 0 0 0
123 1 1 8.2098121714560407e-02 7.0259671578890162e+00 4.5048430129836934e+00 7.4961426704300580e+00 0 0 0
124 1 1 1.0361190610108174e-01 2.0195604698022009e+01 4.5765163324155207e+00 7.0077319716327482e+00 0 0 0
125 1 1 9.0326307858413113e-02 2.4008696904507749e+00 4.3978259823708239e+00 1.6702460448436792e+01 0 0 0
126 1 1 1.1458053839159636e-01 1.6205524588681744e+01 4.5052810334817979e+00 1.6916666445892108e+01 0 0 0
127 1 1 1.0288988472976414e-01 1.3826286817709532e+01 7.7846322936323000e+00 6.8824085633538896e+00 0 0 0
128 1 1 1.0063301123025492e-01 2.7348891028374684e+01 7.7030583871965748e+00 6.8570568306536215e+00 0 0 0
129 1 1 3.0918198178085929e-02 1.0607894011560314e+01 1.2217935103451389e+00 1.7208315945058491e+01 0 0 0
130 1 1 3.0885153263394884e-02 2.4462389751044086e+01 1.6153687009087805e+00 1.7375809365870023e+01 0 0 0
131 1 1 3.5801353743907034e-02 5.5822659867603317e+00 1.0862673343479255e+01 7.6783549777957774e+00 0 0 0
132 1 1 2.5531959851810955e-02 1.9287860951437349e+01 1.1082596772704697e+01 7.3077033609299278e+00 0 0 0
133 1 1 1.5144837137912502e-02 4.0391705226892505e+00 1.1249918009488461e+01 1.7208415521712510e+01 0 0 0
134 1 1 2.9718822956256066e-02 1.7243451478428188e+01 1.1149878824252649e+01 1.6791686757608982e+01 0 0 0
135 1 1 1.3725708064149730e-02 1.2246770136349172e+01 7.9654467132169460e-01 7.4898783415694723e+00 0 0 0
136 1 1 4.2084009135958902e-02 2.6178517744408587e+01 1.0008334177794196e+00 7.1151858780484183e+00 0 0 0
137 1 1 3.5157340475878575e-02 1.0740639405223160e+01 8.3415342644439789e+00 1.7227325711545639e+01 0 0 0
138 1 1 2.9905221988711948e-02 2.4379750500630170e+01 8.5771453041092585e+00 1.7098520853339188e+01 0 0 0
139 1 1 2.7324422480391554e-02 5.7067166908541864e+00 4.0565932445928965e+00 7.6061863917649655e+00 0 0 0
140 1 1 2.8639556875951488e-02 1.8950549933142373e+01 4.1023580152030936e+00 7.4550346964261314e+00 0 0 0
141 1 1 2.8780343032765044e-02 3.7360748189251676e+00 3.9318934879560787e+00 1.6854152384324244e+01 0 0 0
142 1 1 4.8906373531489369e-02 1.7518708225716285e+01 3.9660756744885282e+00 1.7118956463238803e+01 0 0 0
143 1 1 3.4513617327224598e-02 1.2551197670593398e+01 8.3218326902896713e+00 7.2814866097780930e+00 0 0 0
144 1 1 4.5301796781673391e-02 2.6092458870669923e+01 8.1961543176151679e+00 7.3189632164020786e+00 0 0 0
145 1 1 -2.6988918434510300e-02 1.1583856644783882e+01 5.6829975811446709e-01 1.7992494408742353e+01 0 0 0
146 1 1 -2.9548731000166820e-02 2.5342410286040309e+01 7.6574926122507603e-01 1.8081860489468774e+01 0 0 0
147 1 1 -1.7062509144359181e-02 4.6540504807324545e+00 1.1641421831595164e+01 8.4185101861925951e+00 0 0 0
148 1 1 -1.8110465511432236e-02 1.8414589095634792e+01 1.1911219007106137e+01 8.0376579030221222e+00 0 0 0
149 1 1 -9.3500926295318094e-03 4.8715510695082065e+00 1.2001881343632206e+01 1.8092373833238408e+01 0 0 0
150 1 1 -3.6950707629096517e-02 1.8065054801507472e+01 1.1908695078772933e+01 1.7676329396170665e+01 0 0 0
151 1 1 -2.8740893297358620e-02 1.1435559464932560e+01 -9.0710369533744784e-02 8.2185258794822360e+00 0 0 0
152 1 1 -2.9978023491479003e-02 2.5275000054358092e+01 3.2039396141128584e-01 7.9837028868245454e+00 0 0 0
153 1 1 -1.3342951648834412e-02 1.1510840808194322e+01 7.5454473150591914e+00 1.8131127244852422e+01 0 0 0
154 1 1 -2.2711189296221863e-02 2.5248957915572053e+01 7.8202144955997221e+00 1.7936966550479568e+01 0 0 0
155 1 1 -3.2435729812464287e-02 4.8505093313141856e+00 4.8450587115401884e+00 8.4523698993991108e+00 0 0 0
156 1 1 -2.9435256479534884e-02 1.8120888552739913e+01 4.9956144842909938e+00 8.2203003388448277e+00 0 0 0
157 1 1 -2.2056684872311293e-02 4.5991277675492963e+00 4.7520053252228749e+00 1.7642066364942970e+01 0 0 0
158 1 1 -2.6435635260196697e-02 1.8425372298247837e+01 4.7462141824709763e+00 1.7859964286719762e+01 0 0 0
159 1 1 3.3825756960110323e-03 1.1610814402194055e+01 7.5717664660192154e+00 8.0491730638458243e+00 0 0 0
160 1 1 -3.1319638028851252e-02 2.5240422033010447e+01 7.3286600048479089e+00 8.0467255211579136e+00 0 0 0
161 1 1 5.2530733320675246e-02 1.1438753000695860e+01 -7.9534337104251596e-01 1.8410856029389770e+01 0 0 0
162 1 1 4.7111336543816454e-02 2.5081784338697972e+01 -6.0754630041610924e-01 1.8238268989957216e+01 0 0 0
163 1 1 4.2748596732065505e-02 4.8643208153773321e+00 1.2997346366593373e+01 8.8591139036425979e+00 0 0 0
164 1 1 4.8952512439534829e-02 1.8802408180987754e+01 1.3197808829083883e+01 8.5598952933871768e+00 0 0 0
165 1 1 3.8142528622172496e-02 4.4414215479763213e+00 1.3328086422840560e+01 1.8513732323725272e+01 0 0 0
166 1 1 3.6434943230566286e-02 1.7564646875076814e+01 1.3124398823459341e+01 1.8236149789511334e+01 0 0 0
167 1 1 3.7717468841528858e-02 1.1972001519591476e+01 1.3328097320978717e+01 8.8579353562617147e+00 0 -1 0
168 1 1 4.8348881991077577e-02 2.5597481643969285e+01 -9.5627944315742086e-01 8.5254386315908537e+00 0 0 0
169 1 1 4.1623232763819809e-02 1.1035190099221515e+01 6.3073066077710465e+00 1.8623518500928245e+01 0 0 0
170 1 1 4.1285426094496647e-02 2.4778280016988312e+01 6.6147237212294092e+00 1.8526545014236170e+01 0 0 0
171 1 1 4.0538201904814414e-02 5.2367898817718483e+00 6.1163766218787261e+00 8.8919397990141213e+00 0 0 0
172 1 1 4.0374365738387964e-02 1.8564790482886554e+01 6.2833390246125846e+00 8.5549032773273019e+00 0 0 0
173 1 1 3.4326209803601945e-02 4.2592468414442175e+00 6.0370311462307678e+00 1.8097506711434853e+01 0 0 0
174 1 1 3.5859164761482272e-02 1.8140408246439108e+01 6.0724852696101603e+00 1.8282839510231582e+01 0 0 0
175 1 1 5.6111098616548047e-02 1.1972679554855725e+01 6.2502386687829743e+00 8.4177654442904082e+00 0 0 0
176 1 1 4.3692447620770389e-02 2.5710351720117423e+01 6.1048798521621990e+00 8.5961905808228689e+00 0 0 0
177 1 1 -3.3031044009654308e-02 1.0196115618824836e+01 1.3159333802511348e+01 1.8093406670793918e+01 0 -1 0
178 1 1 -2.8063050161400802e-02 2.3919899343144216e+01 1.3419561470081607e+01 1.7615005482709439e+01 0 -1 0
179 1 1 -5.1336801149763758e-02 6.1581375470574455e+00 -1.0279539203357126e+00 8.4523697371875741e+00 0 1 0
180 1 1 -3.4322468341866974e-02 2.0130660115617605e+01 -8.7846564022263995e-01 8.2455375800420718e+00 0 1 0
181 1 1 -4.3583849431874960e-02 3.2239524883155628e+00 -7.7966146154730498e-01 1.8029679607889047e+01 0 1 0
182 1 1 -3.6585211691361308e-02 1.6374631018152403e+01 -8.6000960744869381e-01 1.7712398930348396e+01 0 1 0
183 1 1 -4.0405303315278071e-02 1.3200057225317664e+01 1.2847424196997910e+01 8.3337477954164108e+00 0 -1 0
184 1 1 -2.7574202956839891e-02 2.6705658466151998e+01 1.2943250420176476e+01 7.9556187907036815e+00 0 -1 0
185 1 1 -4.1274240461053838e-02 9.8401187393979122e+00 5.8072694612380902e+00 1.7998487616202688e+01 0 0 0
186 1 1 -2.9086498058136963e-02 2.3465370418301166e+01 6.1485511390873269e+00 1.8173798963973358e+01 0 0 0
187 1 1 -2.8464447629977140e-02 6.5176125893533481e+00 6.6112064305736347e+00 8.5849255418551174e+00 0 0 0
188 1 1 -2.3078740189604256e-02 1.9801325291564865e+01 6.7494520882795541e+00 8.0496947335324442e+00 0 0 0
189 1 1 -4.0350543157898697e-02 2.9631670981399507e+00 6.4734075874165171e+00 1.7675098374228057e+01 0 0 0
190 1 1 -1.4758502869241231e-02 1.6895372854330191e+01 6.6333404101936084e+00 1.7890215132435653e+01 0 0 0
191 1 1 -2.7317549948898477e-02 1.3118453889019237e+01 5.6547181362117094e+00 7.7935864881969641e+00 0 0 0
192 1 1 -3.7745620568531958e-02 2.6980991628481203e+01 5.6380508541851180e+00 8.0786704809784808e+00 0 0 0
193 1 1 1.7980213652702415e-02 9.0615338952806610e+00 -7.9210562186545008e-01 1.7439901813089890e+01 0 0 0
194 1 1 1.7163010317009886e-02 2.2940518136059101e+01 -3.6879125960585801e-01 1.6986623425798992e+01 0 0 0
195 1 1 2.5875498410632650e-02 7.1038609415066087e+00 1.2868775552649396e+01 7.6645960547241563e+00 0 0 0
196 1 1 2.5968032314485648e-02 2.0985022623542015e+01 1.2941374426157310e+01 7.4220372892586060e+00 0 0 0
197 1 1 2.5020122693469482e-02 1.5625636949238231e+01 1.3058273450633052e+01 1.6738252321667790e+01 0 0 0
198 1 1 7.1027589075010195e-03 2.2664469147769548e+00 1.3054257741800097e+01 1.7250843489124701e+01 1 0 0
199 1 1 1.6181949442990444e-02 2.7668690543653724e+01 -9.9248764703740810e-01 7.1131314222841899e+00 -1 0 0
200 1 1 1.7551224763475926e-02 1.4077478832622596e+01 -9.2498029728109077e-01 7.5510429597608999e+00 0 0 0
201 1 1 1.9606541281727674e-02 9.0406201310847170e+00 6.4420297722523419e+00 1.7007544375884041e+01 0 0 0
202 1 1 1.9053713353819016e-02 2.2579694919908842e+01 6.7908372988556733e+00 1.7296139882617254e+01 0 0 0
203 1 1 4.3516615745285252e-03 7.4334775767171468e+00 5.8784164328942250e+00 7.7717598516820319e+00 0 0 0
204 1 1 1.8527604979250316e-02 2.0656320083038910e+01 5.8896937534942184e+00 7.2856959960654093e+00 0 0 0
205 1 1 3.7348151969338848e-02 1.5849391252078822e+01 5.8489205953535617e+00 1.7245697755381091e+01 0 0 0
206 1 1 1.8188220734058343e-02 1.9948628977662226e+00 5.7217925312196405e+00 1.6936978293685602e+01 1 0 0
207 1 1 3.4750778426453494e-02 2.7860772654123654e+01 6.4615732906638916e+00 7.3732538205069913e+00 -1 0 0
208 1 1 2.7055315342863685e-02 1.4052278447915564e+01 6.4066469760545877e+00 7.0039291297655168e+00 0 0 0
209 1 1 -2.7472184829560631e-01 8.0661884010299154e+00 1.3662696612741763e+00 1.6628715354879223e+01 0 0 0
210 1 1 -2.7607025497691917e-01 2.2243186550776702e+01 1.9781031612013411e+00 1.6194500532306634e+01 0 0 0
211 1 1 -2.7661434304164878e-01 7.8545667548403060e+00 1.0735904404776917e+01 6.5147931261674934e+00 0 0 0
212 1 1 -2.8232742176196235e-01 2.1515975975491056e+01 1.0654589081050421e+01 6.1846271038913505e+00 0 0 0
213 1 1 -2.6459114150212398e-01 1.5012906141780565e+01 1.0866660489129853e+01 1.5598559392925431e+01 0 0 0
214 1 1 -2.8522751319891304e-01 1.7667620695716950e+00 1.0831414128386356e+01 1.6173613220242011e+01 1 0 0
215 1 1 -2.7606167634263507e-01 1.3523029157664628e+00 1.1636422582095713e+00 6.2305738400359898e+00 0 0 0
216 1 1 -2.6734262749141169e-01 1.4570436535610495e+01 1.3856869993702041e+00 6.5317945046767480e+00 0 0 0
217 1 1 -2.7844198120924235e-01 8.5133502868010318e+00 8.6853486386164178e+00 1.5961405966175167e+01 0 0 0
218 1 1 -2.8186795277357768e-01 2.1896352399742927e+01 9.0342238544951634e+00 1.6433392585804594e+01 0 0 0
219 1 1 -2.5261467299672641e-01 8.1122595940830475e+00 3.5529105518015447e+00 6.8694627692658754e+00 0 0 0
220 1 1 -2.7080151141455633e-01 2.1187223290809602e+01 3.5787515719994003e+00 6.3145618512673609e+00 0 0 0
221 1 1 -2.9147029163376653e-01 1.5128475376628185e+01 3.6629178412275207e+00 1.6141780401014952e+01 0 0 0
222 1 1 -2.8660569546982767e-01 1.4308148823950162e+00 3.4872453633653340e+00 1.5904090423509942e+01 1 0 0
223 1 1 -2.7044214409753370e-01 2.8293859307194413e+01 8.6324714432754668e+00 6.0601052248976588e+00 -1 0 0
224 1 1 -2.8424351641294476e-01 1.4861609863132713e+01 8.7660964172198597e+00 6.3498277420500866e+00 0 0 0
225 1 2 3.9256331007082246e-01 6.9944149490905163e+00 -1.1143594553722120e+00 4.0674708465256488e+00 0 1 0
226 1 2 3.7245166451437084e-01 2.0345036642366651e+01 1.3257174335797448e+01 3.8175614124674628e+00 0 0 0
227 1 2 3.6755698761531153e-01 9.1728519959275729e+00 1.3446625328841893e+01 1.3414024155137863e+01 0 -1 0
228 1 2 3.8186243828296940e-01 2.3008114186830863e+01 -1.1265278576410729e+00 1.3257745948651120e+01 0 0 0
229 1 2 3.8695707745821012e-01 1.3944049890565646e+01 -1.1286097432772775e+00 3.6179135589993554e+00 0 0 0
230 1 2 3.6045544488193398e-01 2.7202610172862023e+01 -9.5243313998054746e-01 3.3495204963250811e+00 0 0 0
231 1 2 3.8974668550214175e-01 2.5361696200935411e+00 1.3305276566180012e+01 1.3226189997393156e+01 0 0 0
232 1 2 4.0268145945403644e-01 1.6395137119687515e+01 -1.1240336786831124e+00 1.3043916880533926e+01 0 1 0
233 1 2 3.6398915673240084e-01 7.4681468502597674e+00 5.4943287147667066e+00 3.6002782278712053e+00 0 0 0
234 1 2 3.9105527214349939e-01 2.0542915202072482e+01 6.1603399839441142e+00 3.6954987232971144e+00 0 0 0
235 1 2 3.8579970835762889e-01 9.2005570455309140e+00 6.2255871131161431e+00 1.3297916417017300e+01 0 0 0
236 1 2 3.6429892879966302e-01 2.3177117419019332e+01 6.5542643523348181e+00 1.3347706879193961e+01 0 0 0
237 1 2 3.7139290293022698e-01 1.3785164491983224e+01 6.0026558062920250e+00 3.8728046899933628e+00 0 0 0
238 1 2 3.5996550224232882e-01 2.6985973330061423e+01 6.4799495215796865e+00 3.4767646968915846e+00 0 0 0
239 1 2 3.7511478622796673e-01 2.6227707944337615e+00 5.7329989571435673e+00 1.3537338928164045e+01 0 0 0
240 1 2 4.0567385091781949e-01 1.6125994517080262e+01 6.3256845938244233e+00 1.3966717692083265e+01 0 0 0
241 1 2 3.6729049244962936e-01 8.3939469610868720e+00 2.4688997216368689e+00 6.6795689946310854e-01 0 0 0
242 1 2 3.6845874114828542e-01 2.1595889019294422e+01 2.1766012325419983e+00 1.9696627636030840e+01 0 0 -1
243 1 2 3.9013077458578194e-01 7.7652639224261950e+00 9.4624363239824234e+00 1.0483122888845383e+01 0 0 0
244 1 2 3.4893661713988655e-01 2.1915703540400518e+01 9.5907807925384958e+00 1.0101568273092079e+01 0 0 0
245 1 2 3.6132363192957945e-01 1.5127355887051847e+01 9.6048792648065699e+00 5.5766896869903149e-01 0 0 0
246 1 2 3.7108098851687188e-01 1.4747565302579106e+00 9.7647754293730245e+00 4.9879184730776005e-01 1 0 0
247 1 2 3.7787813990569530e-01 1.4820774824773566e+00 2.3667997418324420e+00 9.9090203184926704e+00 0 0 0
248 1 2 3.7506481934629238e-01 1.4945290885235659e+01 2.6537795974094971e+00 1.0038455909106927e+01 0 0 0
249 1 2 3.5526519602950074e-01 8.7261846513753518e+00 9.5892958852068055e+00 8.9149700380651931e-01 0 0 0
250 1 2 3.5336333411945980e-01 2.2104026254404729e+01 1.0162610335150330e+01 9.9723051865414047e-01 0 0 0
251 1 2 3.5584349941395688e-01 7.7162866854458860e+00 2.5481581288524651e+00 1.0027638100710693e+01 0 0 0
252 1 2 3.3264789902969510e-01 2.1614469768583554e+01 2.7955703655141191e+00 1.0276908996858756e+01 0 0 0
253 1 2 3.7338723468306156e-01 1.5445945861263302e+01 2.9446866451564766e+00 1.9658747465803540e+01 0 0 -1
254 1 2 3.3741509186964397e-01 1.7471861308326506e+00 2.6097811022128821e+00 8.7935868431592912e-01 1 0 0
255 1 2 3.8616503894340065e-01 2.8123883517518106e+01 9.3167556195281449e+00 1.0267468734316513e+01 -1 0 0
256 1 2 4.0575039242063443e-01 1.4418030332356276e+01 9.2343000272756193e+00 1.0020406621394732e+01 0 0 0
257 1 2 3.8699710098605872e-01 4.0860187275414335e+00 3.2827676870046396e+00 3.2650648984204085e+00 0 0 0
258 1 2 3.9279194139718970e-01 1.7529364141419915e+01 2.9237734292289641e+00 3.2951567722916266e+00 0 0 0
259 1 2 3.9449315318661043e-01 1.2230399811242457e+01 9.2639212470958938e+00 1.3005128647390581e+01 0 0 0
260 1 2 3.9852068527569290e-01 2.6153252716888307e+01 9.2706178514640065e+00 1.2923573979222949e+01 0 0 0
261 1 2 3.8338167920298338e-01 1.0903737116442301e+01 9.3225869196676321e+00 3.3965935735254749e+00 0 0 0
262 1 2 3.9850795706576947e-01 2.4345189150192649e+01 9.2782558833027267e+00 3.0831204092996378e+00 0 0 0
263 1 2 3.9630411227442741e-01 5.6335684919607605e+00 2.9954664732758616e+00 1.2796210360716485e+01 0 0 0
264 1 2 3.9229318484189074e-01 1.9089193391471081e+01 3.3943471923040454e+00 1.3107392935976423e+01 0 0 0
265 1 2 3.8734263248797463e-01 4.3213434607499837e+00 9.7398574592060569e+00 3.5044106106431059e+00 0 0 0
266 1 2 3.7353598027893548e-01 1.7478413357825161e+01 1.0252211776972082e+01 3.3935812459780355e+00 0 0 0
267 1 2 3.9102997847253301e-01 1.2281341109830098e+01 1.9655767662198547e+00 1.2454795584626574e+01 0 0 0
268 1 2 3.9853380666466376e-01 2.5759106532740343e+01 1.9848540281772364e+00 1.3201281306267196e+01 0 0 0
269 1 2 3.9290321470719514e-01 1.1191231860589800e+01 1.5080198177592394e+00 2.7701755592285346e+00 0 0 0
270 1 2 3.9120485696952922e-01 2.4440820164163984e+01 1.9494977330667402e+00 3.1285550816203744e+00 0 0 0
271 1 2 3.8146847298496389e-01 5.0199329929731498e+00 1.0371591870199701e+01 1.2787984036583705e+01 0 0 0
272 1 2 4.1154687543619112e-01 1.8960196138708582e+01 1.0334048679012767e+01 1.2204167443542422e+01 0 0 0
273 1 2 3.7386231037076034e-01 1.0969357923203427e+01 2.5549308551688807e+00 1.6555701258771808e+01 0 0 0
274 1 2 3.3781768730808787e-01 2.4885551913087248e+01 3.0561699455429894e+00 1.7097897217374651e+01 0 0 0
275 1 2 3.7809448210500035e-01 5.2890201772497303e+00 9.4142811016797054e+00 7.2698957709547321e+00 0 0 0
276 1 2 3.7824504350196342e-01 1.8788518007977135e+01 9.6738085177429198e+00 6.8634333404276431e+00 0 0 0
277 1 2 4.0671314570339090e-01 4.5160054826373903e+00 9.8512557659639626e+00 1.6808487989368142e+01 0 0 0
278 1 2 3.6680137158202625e-01 1.7801752756945969e+01 9.8187409366972780e+00 1.6341461301818601e+01 0 0 0
279 1 2 4.1607933910055356e-01 1.1716964161619751e+01 2.0867742064191894e+00 6.8561513297468197e+00 0 0 0