ITEM: TIMESTEP
0
ITEM: NUMBER OF ATOMS
576
ITEM: BOX BOUNDS xy xz yz pp pp pp
-3.8734541101000000e+00 1.7704000473000001e+01 0.0000000000000000e+00
0.0000000000000000e+00 2.5111999511699999e+01 -3.8734541101000000e+00
0.0000000000000000e+00 1.2813326682700000e+01 0.0000000000000000e+00
ITEM: ATOMS id type xs ys zs
1 1 0.22376 0.315804 0.868584
2 1 0.77624 0.684197 0.131416
3 1 0.0262398 0.565803 0.631416
4 1 0.47376 0.934196 0.368584
5 1 0.22376 0.815804 0.868584
6 1 0.77624 0.184197 0.131416
7 1 0.0262397 0.0658035 0.631416
8 1 0.47376 0.434197 0.368584
9 1 0.72376 0.315804 0.868584
10 1 0.27624 0.684197 0.131416
11 1 0.52624 0.565804 0.631416
12 1 0.97376 0.934196 0.368584
13 1 0.72376 0.815803 0.868584
14 1 0.27624 0.184197 0.131416
15 1 0.52624 0.0658034 0.631416
16 1 0.97376 0.434197 0.368584
17 1 0.156666 0.318181 0.682864
18 1 0.843334 0.681819 0.317136
19 1 0.093334 0.568181 0.817136
20 1 0.406666 0.931819 0.182864
21 1 0.156666 0.81818 0.682865
22 1 0.843334 0.181819 0.317136
23 1 0.093334 0.0681811 0.817136
24 1 0.406666 0.431819 0.182864
25 1 0.656666 0.318182 0.682864
26 1 0.343334 0.681819 0.317136
27 1 0.593334 0.568181 0.817136
28 1 0.906666 0.931819 0.182864
29 1 0.656666 0.818181 0.682864
30 1 0.343334 0.181819 0.317136
31 1 0.593334 0.0681816 0.817136
32 1 0.906666 0.431819 0.182864
33 1 0.277617 0.256624 0.694105
34 1 0.722383 0.743376 0.305895
35 1 0.972383 0.506624 0.805895
36 1 0.527617 0.993376 0.194105
37 1 0.277617 0.756624 0.694105
38 1 0.722383 0.243376 0.305895
39 1 0.972383 0.00662405 0.805895
40 1 0.527618 0.493376 0.194105
41 1 0.777617 0.256624 0.694105
42 1 0.222382 0.743376 0.305895
43 1 0.472383 0.506624 0.805895
44 1 0.0276172 0.993376 0.194105
45 1 0.777617 0.756624 0.694105
46 1 0.222383 0.243376 0.305895
47 1 0.472382 0.00662416 0.805895
48 1 0.0276175 0.493376 0.194105
49 1 0.296748 0.278972 0.87639
50 1 0.703252 0.721028 0.12361
51 1 0.953252 0.528972 0.62361
52 1 0.546749 0.971028 0.37639
53 1 0.296749 0.778972 0.87639
54 1 0.703252 0.221028 0.12361
55 1 0.953251 0.0289721 0.62361
56 1 0.546748 0.471028 0.37639
57 1 0.796749 0.278972 0.876391
58 1 0.203252 0.721028 0.12361
59 1 0.453251 0.528972 0.62361
60 1 0.0467486 0.971028 0.37639
61 1 0.796748 0.778972 0.87639
62 1 0.203252 0.221028 0.12361
63 1 0.453252 0.0289723 0.62361
64 1 0.0467485 0.471028 0.37639
65 1 0.333155 0.307396 0.721469
66 1 0.666845 0.692604 0.278531
67 1 0.916845 0.557396 0.778531
68 1 0.583155 0.942604 0.221469
69 1 0.333156 0.807396 0.721469
70 1 0.666845 0.192604 0.278531
71 1 0.916845 0.057396 0.77853
72 1 0.583155 0.442604 0.221469
73 1 0.833155 0.307396 0.721469
74 1 0.166845 0.692604 0.278531
75 1 0.416845 0.557396 0.778531
76 1 0.0831551 0.942604 0.221469
77 1 0.833155 0.807396 0.721469
78 1 0.166845 0.192604 0.278531
79 1 0.416845 0.0573961 0.778531
80 1 0.083155 0.442604 0.221469
81 1 0.214021 0.367387 0.711782
82 1 0.785978 0.632614 0.288217
83 1 0.0359782 0.617387 0.788217
84 1 0.464022 0.882613 0.211783
85 1 0.21402 0.867387 0.711781
86 1 0.785978 0.132614 0.288217
87 1 0.0359783 0.117387 0.788217
88 1 0.464022 0.382614 0.211783
89 1 0.714022 0.367386 0.711783
90 1 0.285978 0.632614 0.288217
91 1 0.535978 0.617387 0.788217
92 1 0.964022 0.882613 0.211783
93 1 0.714022 0.867387 0.711783
94 1 0.285978 0.132614 0.288217
95 1 0.535978 0.117386 0.788217
96 1 0.964022 0.382614 0.211783
97 2 0.209869 0.32056 0.942919
98 2 0.790131 0.67944 0.0570812
99 2 0.0401307 0.57056 0.557081
100 2 0.459869 0.92944 0.442919
101 2 0.209869 0.82056 0.942919
102 2 0.790131 0.17944 0.0570812
103 2 0.0401306 0.0705598 0.557081
104 2 0.459869 0.42944 0.442919
105 2 0.709869 0.32056 0.942919
106 2 0.290131 0.67944 0.0570812
107 2 0.540131 0.57056 0.557081
108 2 0.959869 0.92944 0.442919
109 2 0.709869 0.82056 0.942919
110 2 0.290131 0.17944 0.0570812
111 2 0.540131 0.0705598 0.557081
112 2 0.959869 0.42944 0.442919
113 2 0.098404 0.328532 0.629537
114 2 0.901596 0.671468 0.370463
115 2 0.151596 0.578532 0.870463
116 2 0.348404 0.921468 0.129537
117 2 0.098404 0.828532 0.629537
118 2 0.901596 0.171468 0.370463
119 2 0.151596 0.0785319 0.870463
120 2 0.348404 0.421468 0.129537
121 2 0.598404 0.328532 0.629537
122 2 0.401596 0.671468 0.370463
123 2 0.651596 0.578532 0.870463
124 2 0.848404 0.921468 0.129537
125 2 0.598404 0.828532 0.629537
126 2 0.401596 0.171468 0.370463
127 2 0.651596 0.0785318 0.870463
128 2 0.848404 0.421468 0.129537
129 2 0.295949 0.22777 0.643881
130 2 0.704051 0.77223 0.356119
131 2 0.954051 0.47777 0.856119
132 2 0.545949 0.0222305 0.143881
133 2 0.295949 0.72777 0.643881
134 2 0.704051 0.27223 0.356119
135 2 0.954051 0.97777 0.856119
136 2 0.545949 0.52223 0.143881
137 2 0.795949 0.22777 0.643881
138 2 0.204051 0.77223 0.356119
139 2 0.454051 0.47777 0.856119
140 2 0.0459492 0.0222305 0.143881
141 2 0.795949 0.72777 0.643881
142 2 0.204051 0.27223 0.356119
143 2 0.454051 0.97777 0.856119
144 2 0.0459492 0.52223 0.143881
145 2 0.319868 0.264573 0.956864
146 2 0.680132 0.735427 0.0431358
147 2 0.930132 0.514573 0.543136
148 2 0.569868 0.985427 0.456864
149 2 0.319868 0.764573 0.956864
150 2 0.680132 0.235427 0.0431358
151 2 0.930132 0.014573 0.543136
152 2 0.569868 0.485427 0.456864
153 2 0.819868 0.264573 0.956864
154 2 0.180132 0.735427 0.0431358
155 2 0.430132 0.514573 0.543136
156 2 0.0698684 0.985427 0.456864
157 2 0.819868 0.764573 0.956864
158 2 0.180132 0.235427 0.0431358
159 2 0.430132 0.0145731 0.543136
160 2 0.0698683 0.485427 0.456864
161 2 0.38375 0.306307 0.689279
162 2 0.61625 0.693693 0.310721
163 2 0.86625 0.556307 0.810721
164 2 0.63375 0.943693 0.189279
165 2 0.383749 0.806307 0.689279
166 2 0.61625 0.193693 0.310721
167 2 0.86625 0.056307 0.810721
168 2 0.63375 0.443693 0.189279
169 2 0.88375 0.306307 0.689279
170 2 0.11625 0.693693 0.310721
171 2 0.36625 0.556307 0.810721
172 2 0.13375 0.943693 0.189279
173 2 0.88375 0.806307 0.689279
174 2 0.11625 0.193693 0.310721
175 2 0.36625 0.056307 0.810721
176 2 0.13375 0.443693 0.189279
177 2 0.186593 0.405154 0.678071
178 2 0.813407 0.594846 0.321929
179 2 0.0634071 0.655154 0.821929
180 2 0.436593 0.844846 0.178071
181 2 0.186593 0.905154 0.678071
182 2 0.813407 0.0948463 0.321929
183 2 0.0634071 0.155154 0.821929
184 2 0.436593 0.344846 0.178071
185 2 0.686593 0.405154 0.678071
186 2 0.313407 0.594846 0.321929
187 2 0.563407 0.655154 0.821929
188 2 0.936593 0.844846 0.178071
189 2 0.686593 0.905154 0.678071
190 2 0.313407 0.0948463 0.321929
191 2 0.563407 0.155154 0.821929
192 2 0.936593 0.344846 0.178071
193 3 0.150714 0.295362 0.78685
194 3 0.849286 0.704638 0.213149
195 3 0.0992863 0.545362 0.71315
196 3 0.400714 0.954638 0.28685
197 3 0.150714 0.795362 0.786849
198 3 0.849286 0.204638 0.213149
199 3 0.0992862 0.0453622 0.71315
200 3 0.400714 0.454638 0.286851
201 3 0.650714 0.295362 0.786851
202 3 0.349286 0.704638 0.213149
203 3 0.599286 0.545362 0.71315
204 3 0.900714 0.954638 0.28685
205 3 0.650714 0.795362 0.78685
206 3 0.349286 0.204638 0.213149
207 3 0.599286 0.0453621 0.713149
208 3 0.900714 0.454638 0.286851
209 3 0.0704154 0.304527 0.80627
210 3 0.929584 0.695473 0.19373
211 3 0.179585 0.554527 0.69373
212 3 0.320415 0.945473 0.30627
213 3 0.0704155 0.804527 0.80627
214 3 0.929584 0.195473 0.19373
215 3 0.179584 0.0545267 0.69373
216 3 0.320416 0.445473 0.30627
217 3 0.570415 0.304527 0.80627
218 3 0.429584 0.695473 0.19373
219 3 0.679585 0.554527 0.69373
220 3 0.820415 0.945473 0.30627
221 3 0.570416 0.804527 0.80627
222 3 0.429584 0.195473 0.19373
223 3 0.679584 0.0545267 0.69373
224 3 0.820416 0.445473 0.30627
225 3 0.194373 0.274369 0.636007
226 3 0.805627 0.725631 0.363993
227 3 0.0556266 0.524369 0.863993
228 3 0.444373 0.975631 0.136007
229 3 0.194373 0.77437 0.636007
230 3 0.805627 0.225631 0.363993
231 3 0.0556268 0.0243694 0.863993
232 3 0.444373 0.475631 0.136007
233 3 0.694374 0.274369 0.636007
234 3 0.305627 0.725631 0.363993
235 3 0.555626 0.524369 0.863993
236 3 0.944373 0.975631 0.136007
237 3 0.694373 0.774369 0.636007
238 3 0.305627 0.225631 0.363993
239 3 0.555627 0.024369 0.863993
240 3 0.944373 0.475631 0.136007
241 3 0.151734 0.25284 0.527864
242 3 0.848267 0.747161 0.472137
243 3 0.0982665 0.502839 0.972136
244 3 0.401734 0.99716 0.0278644
245 3 0.151733 0.752839 0.527863
246 3 0.848267 0.247161 0.472136
247 3 0.0982668 0.0028394 0.972137
248 3 0.401733 0.497161 0.0278634
249 3 0.651734 0.25284 0.527865
250 3 0.348267 0.747161 0.472137
251 3 0.598266 0.50284 0.972136
252 3 0.901734 0.99716 0.0278644
253 3 0.651733 0.752839 0.527863
254 3 0.348267 0.247161 0.472137
255 3 0.598267 0.00283942 0.972136
256 3 0.901733 0.497161 0.0278635
257 3 0.284228 0.232259 0.800172
258 3 0.715772 0.767741 0.199827
259 3 0.965772 0.482259 0.699827
260 3 0.534228 0.0177409 0.300172
261 3 0.284227 0.732259 0.800172
262 3 0.715772 0.267741 0.199827
263 3 0.965773 0.982259 0.699828
264 3 0.534228 0.517741 0.300173
265 3 0.784228 0.232259 0.800172
266 3 0.215772 0.767741 0.199827
267 3 0.465772 0.482259 0.699828
268 3 0.0342276 0.0177409 0.300172
269 3 0.784228 0.732259 0.800173
270 3 0.215772 0.267741 0.199827
271 3 0.465772 0.982259 0.699827
272 3 0.0342276 0.517741 0.300173
273 3 0.220372 0.193074 0.806283
274 3 0.779629 0.806927 0.193717
275 3 0.0296285 0.443074 0.693717
276 3 0.470372 0.0569261 0.306283
277 3 0.220371 0.693073 0.806283
278 3 0.779629 0.306927 0.193717
279 3 0.0296289 0.943073 0.693717
280 3 0.470371 0.556927 0.306283
281 3 0.720372 0.193074 0.806283
282 3 0.279629 0.806927 0.193717
283 3 0.529628 0.443074 0.693717
284 3 0.970372 0.0569261 0.306283
285 3 0.720371 0.693073 0.806283
286 3 0.279629 0.306927 0.193717
287 3 0.529629 0.943073 0.693717
288 3 0.970371 0.556927 0.306283
289 3 0.3623 0.304996 0.83904
290 3 0.6377 0.695004 0.160961
291 3 0.8877 0.554996 0.66096
292 3 0.6123 0.945004 0.33904
293 3 0.3623 0.804995 0.83904
294 3 0.6377 0.195004 0.160961
295 3 0.8877 0.0549954 0.66096
296 3 0.612299 0.445004 0.339039
297 3 0.8623 0.304996 0.83904
298 3 0.1377 0.695004 0.160961
299 3 0.3877 0.554996 0.66096
300 3 0.1123 0.945004 0.33904
301 3 0.8623 0.804996 0.839039
302 3 0.1377 0.195004 0.160961
303 3 0.3877 0.0549959 0.660961
304 3 0.1123 0.445004 0.339039
305 3 0.399166 0.35379 0.90039
306 3 0.600834 0.64621 0.09961
307 3 0.850834 0.60379 0.59961
308 3 0.649166 0.89621 0.40039
309 3 0.399166 0.853789 0.90039
310 3 0.600834 0.14621 0.0996101
311 3 0.850834 0.103789 0.59961
312 3 0.649166 0.39621 0.40039
313 3 0.899166 0.35379 0.90039
314 3 0.100834 0.64621 0.09961
315 3 0.350834 0.60379 0.59961
316 3 0.149166 0.89621 0.40039
317 3 0.899166 0.85379 0.90039
318 3 0.100834 0.14621 0.09961
319 3 0.350834 0.10379 0.59961
320 3 0.149166 0.39621 0.40039
321 3 0.28406 0.355642 0.671085
322 3 0.71594 0.644358 0.328914
323 3 0.96594 0.605642 0.828914
324 3 0.53406 0.894358 0.171086
325 3 0.284061 0.855641 0.671086
326 3 0.71594 0.144358 0.328914
327 3 0.96594 0.105642 0.828914
328 3 0.534059 0.394358 0.171086
329 3 0.784059 0.355642 0.671086
330 3 0.21594 0.644358 0.328914
331 3 0.46594 0.605642 0.828914
332 3 0.0340599 0.894358 0.171086
333 3 0.78406 0.855642 0.671086
334 3 0.21594 0.144358 0.328914
335 3 0.465941 0.105642 0.828914
336 3 0.0340596 0.394358 0.171086
337 3 0.328083 0.403717 0.644402
338 3 0.671917 0.596283 0.355598
339 3 0.921917 0.653717 0.855598
340 3 0.578083 0.846283 0.144402
341 3 0.328083 0.903717 0.644402
342 3 0.671917 0.0962832 0.355598
343 3 0.921917 0.153717 0.855598
344 3 0.578083 0.346283 0.144402
345 3 0.828083 0.403717 0.644402
346 3 0.171917 0.596283 0.355598
347 3 0.421917 0.653717 0.855598
348 3 0.0780833 0.846283 0.144402
349 3 0.828083 0.903717 0.644402
350 3 0.171917 0.0962832 0.355598
351 3 0.421917 0.153717 0.855598
352 3 0.0780832 0.346283 0.144402
353 3 0.240254 0.370639 0.83112
354 3 0.759746 0.629361 0.168881
355 3 0.00974598 0.620639 0.66888
356 3 0.490254 0.879361 0.33112
357 3 0.240254 0.870638 0.831121
358 3 0.759746 0.129361 0.168881
359 3 0.00974591 0.120639 0.66888
360 3 0.490254 0.379361 0.331119
361 3 0.740254 0.370639 0.831119
362 3 0.259746 0.629361 0.168881
363 3 0.509746 0.620639 0.66888
364 3 0.990254 0.879361 0.33112
365 3 0.740254 0.870639 0.831119
366 3 0.259746 0.129361 0.168881
367 3 0.509746 0.120639 0.668881
368 3 0.990254 0.379361 0.331119
369 3 0.20647 0.418237 0.875386
370 3 0.79353 0.581763 0.124614
371 3 0.0435304 0.668237 0.624614
372 3 0.45647 0.831763 0.375386
373 3 0.20647 0.918237 0.875386
374 3 0.79353 0.0817626 0.124614
375 3 0.0435304 0.168237 0.624614
376 3 0.45647 0.331763 0.375386
377 3 0.70647 0.418237 0.875386
378 3 0.29353 0.581763 0.124614
379 3 0.54353 0.668237 0.624614
380 3 0.95647 0.831763 0.375386
381 3 0.70647 0.918237 0.875386
382 3 0.29353 0.0817626 0.124614
383 3 0.54353 0.168237 0.624614
384 3 0.95647 0.331763 0.375386
385 4 0.00895178 0.308724 0.728141
386 4 0.991048 0.691276 0.271859
387 4 0.241048 0.558724 0.771859
388 4 0.258952 0.941276 0.228141
389 4 0.00895192 0.808724 0.728141
390 4 0.991048 0.191276 0.271859
391 4 0.241048 0.0587238 0.771859
392 4 0.258952 0.441276 0.228141
393 4 0.508952 0.308724 0.728141
394 4 0.491048 0.691276 0.271859
395 4 0.741048 0.558724 0.771859
396 4 0.758952 0.941276 0.228141
397 4 0.508952 0.808724 0.728141
398 4 0.491048 0.191276 0.271859
399 4 0.741048 0.0587238 0.771859
400 4 0.758952 0.441276 0.228141
401 4 0.0662812 0.299111 0.899255
402 4 0.933719 0.700889 0.100745
403 4 0.183719 0.549111 0.600745
404 4 0.316281 0.950889 0.399255
405 4 0.0662813 0.799111 0.899255
406 4 0.933719 0.200889 0.100745
407 4 0.183719 0.0491111 0.600745
408 4 0.316281 0.450889 0.399255
409 4 0.566281 0.299111 0.899255
410 4 0.433719 0.700889 0.100745
411 4 0.683719 0.549111 0.600745
412 4 0.816281 0.950889 0.399255
413 4 0.566281 0.799111 0.899255
414 4 0.433719 0.200889 0.100745
415 4 0.683719 0.0491111 0.600745
416 4 0.816281 0.450889 0.399255
417 4 0.183397 0.214311 0.492843
418 4 0.816603 0.785689 0.507157
419 4 0.0666027 0.464311 0.00715734
420 4 0.433397 0.0356895 0.992842
421 4 0.183397 0.714311 0.492843
422 4 0.816603 0.285689 0.507157
423 4 0.066603 0.964311 0.00715709
424 4 0.433397 0.535689 0.992843
425 4 0.683398 0.21431 0.492842
426 4 0.316603 0.785689 0.507157
427 4 0.566603 0.464311 0.00715757
428 4 0.933397 0.0356895 0.992842
429 4 0.683397 0.714311 0.492843
430 4 0.316603 0.285689 0.507157
431 4 0.566603 0.964311 0.00715721
432 4 0.933397 0.535689 0.992843
433 4 0.0883635 0.275375 0.475136
434 4 0.911636 0.724625 0.524864
435 4 0.161636 0.525375 0.0248641
436 4 0.338363 0.974625 0.975135
437 4 0.0883646 0.775374 0.475137
438 4 0.911636 0.224625 0.524864
439 4 0.161636 0.0253744 0.0248639
440 4 0.338364 0.474625 0.975136
441 4 0.588363 0.275375 0.475135
442 4 0.411636 0.724625 0.524864
443 4 0.661637 0.525375 0.0248644
444 4 0.838363 0.974625 0.975135
445 4 0.588364 0.775375 0.475136
446 4 0.411636 0.224625 0.524864
447 4 0.661636 0.0253745 0.0248639
448 4 0.838364 0.474625 0.975136
449 4 0.190872 0.162761 0.728417
450 4 0.809128 0.837239 0.271582
451 4 0.0591278 0.412761 0.771583
452 4 0.440872 0.0872393 0.228416
453 4 0.190873 0.662761 0.728418
454 4 0.809128 0.337239 0.271582
455 4 0.0591275 0.912761 0.771582
456 4 0.440872 0.587239 0.228418
457 4 0.690872 0.162761 0.728416
458 4 0.309128 0.837239 0.271582
459 4 0.559128 0.412761 0.771583
460 4 0.940872 0.0872393 0.228416
461 4 0.690872 0.662761 0.728418
462 4 0.309128 0.337239 0.271582
463 4 0.559128 0.912761 0.771582
464 4 0.940872 0.587239 0.228418
465 4 0.20263 0.189263 0.891799
466 4 0.797369 0.810737 0.108202
467 4 0.0473696 0.439263 0.608201
468 4 0.45263 0.0607368 0.3918
469 4 0.202631 0.689263 0.891798
470 4 0.797369 0.310737 0.108202
471 4 0.0473694 0.939263 0.608202
472 4 0.452631 0.560737 0.391798
473 4 0.70263 0.189263 0.8918
474 4 0.297369 0.810737 0.108202
475 4 0.54737 0.439263 0.608201
476 4 0.95263 0.0607368 0.3918
477 4 0.702631 0.689263 0.891798
478 4 0.297369 0.310737 0.108202
479 4 0.547369 0.939263 0.608202
480 4 0.952631 0.560737 0.391798
481 4 0.429284 0.389551 0.85596
482 4 0.570716 0.610449 0.14404
483 4 0.820716 0.639551 0.64404
484 4 0.679284 0.860449 0.35596
485 4 0.429283 0.889552 0.855959
486 4 0.570716 0.110449 0.14404
487 4 0.820717 0.139552 0.644041
488 4 0.679284 0.360449 0.35596
489 4 0.929284 0.389551 0.85596
490 4 0.0707162 0.610449 0.14404
491 4 0.320716 0.639551 0.64404
492 4 0.179284 0.860449 0.35596
493 4 0.929284 0.889551 0.85596
494 4 0.0707162 0.110449 0.14404
495 4 0.320716 0.139551 0.64404
496 4 0.179284 0.360449 0.35596
497 4 0.40015 0.357072 0.996054
498 4 0.59985 0.642928 0.00394564
499 4 0.84985 0.607072 0.503946
500 4 0.65015 0.892928 0.496054
501 4 0.40015 0.857073 0.996055
502 4 0.59985 0.142928 0.00394561
503 4 0.84985 0.107073 0.503945
504 4 0.65015 0.392928 0.496054
505 4 0.90015 0.357072 0.996054
506 4 0.0998504 0.642928 0.00394565
507 4 0.34985 0.607072 0.503946
508 4 0.15015 0.892928 0.496054
509 4 0.90015 0.857072 0.996054
510 4 0.0998504 0.142928 0.00394561
511 4 0.34985 0.107072 0.503946
512 4 0.15015 0.392928 0.496054
513 4 0.299234 0.450399 0.644307
514 4 0.700766 0.549601 0.355693
515 4 0.950766 0.700399 0.855693
516 4 0.549234 0.799601 0.144307
517 4 0.299234 0.9504 0.644307
518 4 0.700766 0.0496008 0.355693
519 4 0.950766 0.200399 0.855693
520 4 0.549234 0.299601 0.144307
521 4 0.799234 0.450399 0.644307
522 4 0.200766 0.549601 0.355693
523 4 0.450766 0.700399 0.855693
524 4 0.049234 0.799601 0.144307
525 4 0.799234 0.950399 0.644307
526 4 0.200766 0.0496008 0.355693
527 4 0.450766 0.200399 0.855693
528 4 0.0492339 0.299601 0.144307
529 4 0.389626 0.395329 0.615004
530 4 0.610373 0.604671 0.384996
531 4 0.860374 0.645329 0.884996
532 4 0.639626 0.854671 0.115004
533 4 0.389627 0.895329 0.615003
534 4 0.610373 0.104671 0.384996
535 4 0.860373 0.145329 0.884996
536 4 0.639627 0.354671 0.115004
537 4 0.889626 0.395329 0.615004
538 4 0.110373 0.604671 0.384996
539 4 0.360374 0.645329 0.884996
540 4 0.139626 0.854671 0.115004
541 4 0.889627 0.895329 0.615004
542 4 0.110373 0.104671 0.384996
543 4 0.360374 0.145329 0.884996
544 4 0.139627 0.354671 0.115004
545 4 0.195533 0.461959 0.824363
546 4 0.804467 0.538041 0.175637
547 4 0.0544673 0.711959 0.675637
548 4 0.445533 0.788041 0.324363
549 4 0.195533 0.961959 0.824363
550 4 0.804467 0.038041 0.175637
551 4 0.0544673 0.211959 0.675637
552 4 0.445533 0.288041 0.324363
553 4 0.695533 0.461959 0.824363
554 4 0.304467 0.538041 0.175637
555 4 0.554467 0.711959 0.675637
556 4 0.945533 0.788041 0.324363
557 4 0.695533 0.961959 0.824363
558 4 0.304467 0.038041 0.175637
559 4 0.554467 0.211959 0.675637
560 4 0.945533 0.288041 0.324363
561 4 0.197743 0.414314 0.96647
562 4 0.802257 0.585686 0.0335304
563 4 0.0522574 0.664314 0.53353
564 4 0.447743 0.835686 0.46647
565 4 0.197743 0.914314 0.96647
566 4 0.802257 0.0856856 0.0335303
567 4 0.0522574 0.164314 0.53353
568 4 0.447743 0.335686 0.46647
569 4 0.697743 0.414314 0.96647
570 4 0.302257 0.585686 0.0335304
571 4 0.552257 0.664314 0.53353
572 4 0.947743 0.835686 0.46647
573 4 0.697743 0.914314 0.96647
574 4 0.302257 0.0856856 0.0335304
575 4 0.552257 0.164314 0.53353
576 4 0.947743 0.335686 0.46647
ITEM: TIMESTEP
1000
ITEM: NUMBER OF ATOMS
576
ITEM: BOX BOUNDS xy xz yz pp pp pp
-5.2653537523514640e+00 1.8338664230510545e+01 -2.1350583339680493e-01
-3.3265405573794277e-01 2.5374543763515334e+01 -4.4171841614441680e+00
-6.5436502665589025e-01 1.3467691709355893e+01 -7.0109803922613165e-02
ITEM: ATOMS id type xs ys zs
1 1 0.23811 0.314047 0.880661
2 1 0.751579 0.693027 0.129437
3 1 0.00893957 0.566256 0.63294
4 1 0.481181 0.931822 0.359988
5 1 0.238035 0.825085 0.850789
6 1 0.776028 0.175043 0.144775
7 1 0.0183926 0.0649765 0.642726
8 1 0.49542 0.426921 0.364024
9 1 0.748374 0.314813 0.870305
10 1 0.261274 0.675177 0.131594
11 1 0.50863 0.572247 0.627964
12 1 0.975934 0.927796 0.359559
13 1 0.725803 0.825905 0.856771
14 1 0.284842 0.182807 0.139106
15 1 0.523776 0.0714043 0.631636
16 1 0.987206 0.441512 0.359712
17 1 0.155348 0.298623 0.726573
18 1 0.832191 0.705404 0.288473
19 1 0.0868514 0.554523 0.793042
20 1 0.396727 0.951086 0.204858
21 1 0.15446 0.805665 0.693874
22 1 0.849471 0.198194 0.304249
23 1 0.108197 0.0461267 0.790066
24 1 0.40471 0.44543 0.219565
25 1 0.659114 0.299338 0.712168
26 1 0.335725 0.700106 0.283292
27 1 0.578276 0.548113 0.785922
28 1 0.903927 0.950788 0.204025
29 1 0.637407 0.808753 0.701954
30 1 0.368917 0.196505 0.295437
31 1 0.613801 0.0584994 0.791294
32 1 0.911199 0.43826 0.186465
33 1 0.267608 0.236909 0.7269
34 1 0.723064 0.763623 0.289235
35 1 0.969869 0.50272 0.78363
36 1 0.510474 0.00442118 0.209564
37 1 0.265439 0.750279 0.69796
38 1 0.73352 0.25249 0.283204
39 1 0.989741 0.997866 0.80308
40 1 0.508101 0.497957 0.20632
41 1 0.767574 0.24957 0.699799
42 1 0.222131 0.745611 0.274406
43 1 0.463348 0.49435 0.76549
44 1 0.0178502 0.00313976 0.220837
45 1 0.744347 0.754526 0.691124
46 1 0.257713 0.244476 0.305992
47 1 0.505338 0.00426756 0.79703
48 1 0.0373223 0.483238 0.180135
49 1 0.301463 0.276577 0.87867
50 1 0.68154 0.723447 0.132197
51 1 0.941904 0.53431 0.629818
52 1 0.550343 0.966044 0.364345
53 1 0.304631 0.790764 0.843688
54 1 0.708907 0.209134 0.134317
55 1 0.945012 0.0369348 0.646491
56 1 0.562435 0.46053 0.356831
57 1 0.818301 0.28594 0.860624
58 1 0.188884 0.702706 0.126172
59 1 0.439614 0.538326 0.619724
60 1 0.0503227 0.957864 0.36521
61 1 0.789124 0.792997 0.841847
62 1 0.218368 0.212729 0.149301
63 1 0.460358 0.0374218 0.640648
64 1 0.0583765 0.468724 0.353271
65 1 0.310059 0.286873 0.719846
66 1 0.680309 0.714078 0.290867
67 1 0.928022 0.553759 0.786884
68 1 0.553863 0.957502 0.198811
69 1 0.307791 0.802225 0.691262
70 1 0.689443 0.202509 0.289212
71 1 0.958386 0.0506418 0.815784
72 1 0.547105 0.449708 0.191011
73 1 0.805444 0.301706 0.695669
74 1 0.179936 0.694921 0.284203
75 1 0.422123 0.5437 0.77585
76 1 0.0533347 0.951314 0.205065
77 1 0.788244 0.803736 0.684367
78 1 0.218176 0.192743 0.30605
79 1 0.461341 0.0536242 0.798321
80 1 0.0748992 0.432027 0.208914
81 1 0.201775 0.343844 0.71675
82 1 0.784494 0.656381 0.283127
83 1 0.0423772 0.604424 0.791864
84 1 0.439799 0.902479 0.1927
85 1 0.198109 0.853546 0.686942
86 1 0.803491 0.148734 0.309462
87 1 0.0724528 0.0988164 0.796885
88 1 0.441069 0.395172 0.20436
89 1 0.698817 0.351091 0.712512
90 1 0.297474 0.650645 0.300303
91 1 0.535813 0.598006 0.791952
92 1 0.940281 0.899259 0.198992
93 1 0.680762 0.858053 0.694042
94 1 0.328833 0.143904 0.297609
95 1 0.567568 0.106339 0.794588
96 1 0.950419 0.386522 0.209397
97 2 0.236141 0.325153 0.953907
98 2 0.745071 0.684313 0.0551934
99 2 0.0183102 0.569482 0.562864
100 2 0.477437 0.923448 0.434907
101 2 0.242369 0.834447 0.923845
102 2 0.775991 0.162796 0.0721506
103 2 0.0194472 0.0699467 0.569098
104 2 0.502232 0.414578 0.437373
105 2 0.756173 0.318713 0.94833
106 2 0.264212 0.658818 0.0613817
107 2 0.509146 0.583452 0.554103
108 2 0.974088 0.913866 0.428331
109 2 0.735327 0.834504 0.934151
110 2 0.291302 0.179706 0.0670025
111 2 0.521694 0.0799568 0.560402
112 2 0.984989 0.442653 0.432925
113 2 0.0963473 0.303461 0.688314
114 2 0.890307 0.696742 0.327597
115 2 0.144671 0.559629 0.83557
116 2 0.336614 0.945151 0.167557
117 2 0.0963935 0.812403 0.655859
118 2 0.90668 0.197652 0.347193
119 2 0.169712 0.0508344 0.825626
120 2 0.344617 0.441037 0.190034
121 2 0.60021 0.299388 0.674349
122 2 0.393929 0.698801 0.324479
123 2 0.635834 0.549529 0.824006
124 2 0.844755 0.948593 0.161195
125 2 0.577852 0.816081 0.672745
126 2 0.430546 0.193481 0.326587
127 2 0.674685 0.0675195 0.821487
128 2 0.852856 0.431757 0.136619
129 2 0.287231 0.206451 0.691419
130 2 0.713146 0.794853 0.336422
131 2 0.9503 0.473192 0.822228
132 2 0.528252 0.0381342 0.174332
133 2 0.283932 0.719369 0.661349
134 2 0.715923 0.283854 0.321525
135 2 0.973731 0.965728 0.842656
136 2 0.525403 0.532638 0.177025
137 2 0.785709 0.218774 0.658587
138 2 0.203659 0.781718 0.303086
139 2 0.449568 0.459873 0.801253
140 2 0.0347881 0.0368536 0.188652
141 2 0.754023 0.724306 0.643978
142 2 0.23844 0.27329 0.347158
143 2 0.488883 0.970947 0.83259
144 2 0.0544893 0.5075 0.133262
145 2 0.335216 0.270709 0.951744
146 2 0.649929 0.727448 0.0595667
147 2 0.905224 0.530225 0.556297
148 2 0.580517 0.971712 0.436848
149 2 0.343195 0.781359 0.91434
150 2 0.678873 0.214508 0.0605276
151 2 0.912223 0.0273446 0.574134
152 2 0.606323 0.469071 0.423695
153 2 0.857615 0.282191 0.929458
154 2 0.154261 0.707877 0.053408
155 2 0.410568 0.536875 0.543049
156 2 0.0828725 0.959697 0.43856
157 2 0.828718 0.789407 0.912402
158 2 0.180468 0.221441 0.0786993
159 2 0.421717 0.0313217 0.567577
160 2 0.0893576 0.481119 0.425808
161 2 0.351468 0.278359 0.683319
162 2 0.638761 0.72229 0.326919
163 2 0.887947 0.552799 0.828433
164 2 0.591837 0.971742 0.16238
165 2 0.342064 0.797395 0.64362
166 2 0.64432 0.210315 0.318693
167 2 0.916396 0.0485322 0.854961
168 2 0.582361 0.454367 0.144501
169 2 0.84284 0.297549 0.651367
170 2 0.137355 0.6979 0.320543
171 2 0.371907 0.536481 0.795736
172 2 0.096088 0.957443 0.17146
173 2 0.820022 0.796881 0.636469
174 2 0.187902 0.194185 0.35857
175 2 0.424377 0.050889 0.841879
176 2 0.115589 0.426708 0.170491
177 2 0.170564 0.377625 0.68144
178 2 0.812582 0.622424 0.323648
179 2 0.075249 0.637684 0.828986
180 2 0.403585 0.869966 0.155701
181 2 0.16059 0.884356 0.650207
182 2 0.835963 0.120638 0.357853
183 2 0.114131 0.129451 0.833371
184 2 0.401501 0.36344 0.175443
185 2 0.661064 0.383235 0.690339
186 2 0.331799 0.625636 0.357759
187 2 0.571008 0.630774 0.829354
188 2 0.899232 0.868773 0.158864
189 2 0.644275 0.890135 0.657115
190 2 0.366152 0.113033 0.334742
191 2 0.600385 0.139846 0.824718
192 2 0.917202 0.350481 0.193989
193 3 0.162161 0.2887 0.829109
194 3 0.826529 0.718197 0.182494
195 3 0.0858356 0.541761 0.690628
196 3 0.410622 0.961098 0.314495
197 3 0.162415 0.797433 0.800898
198 3 0.851164 0.201541 0.201009
199 3 0.0890771 0.0317118 0.682
200 3 0.420261 0.453597 0.33049
201 3 0.673128 0.285663 0.81825
202 3 0.331245 0.707404 0.177579
203 3 0.579229 0.54122 0.681037
204 3 0.908126 0.959516 0.311738
205 3 0.65196 0.798371 0.81349
206 3 0.360316 0.211407 0.194214
207 3 0.604164 0.0446408 0.689771
208 3 0.912525 0.462513 0.279047
209 3 0.0923712 0.307209 0.855132
210 3 0.895432 0.69622 0.161366
211 3 0.152212 0.566945 0.666022
212 3 0.344646 0.940989 0.347056
213 3 0.0954822 0.816051 0.829012
214 3 0.929675 0.186941 0.199484
215 3 0.15341 0.0476626 0.642811
216 3 0.352395 0.439172 0.361406
217 3 0.603198 0.301529 0.844033
218 3 0.402625 0.686971 0.160865
219 3 0.653706 0.565849 0.678469
220 3 0.837908 0.93946 0.336248
221 3 0.586693 0.813086 0.850287
222 3 0.431096 0.192534 0.172319
223 3 0.671112 0.05834 0.657869
224 3 0.841885 0.45628 0.308893
225 3 0.186679 0.244782 0.681221
226 3 0.810124 0.751329 0.336409
227 3 0.0534058 0.506651 0.82806
228 3 0.422836 0.997451 0.160046
229 3 0.182838 0.754839 0.658023
230 3 0.816239 0.24714 0.33783
231 3 0.0774535 0.00224561 0.837012
232 3 0.422702 0.493787 0.171638
233 3 0.685008 0.252553 0.662111
234 3 0.30478 0.749074 0.32023
235 3 0.55005 0.49758 0.818389
236 3 0.936073 0.99944 0.168088
237 3 0.659897 0.761303 0.656534
238 3 0.341533 0.241296 0.349533
239 3 0.589223 0.0104104 0.841137
240 3 0.958937 0.4735 0.131319
241 3 0.162993 0.250002 0.573252
242 3 0.829779 0.744439 0.444934
243 3 0.0710545 0.481763 0.927848
244 3 0.407475 0.991996 0.0534131
245 3 0.159056 0.741039 0.551129
246 3 0.832536 0.252445 0.444915
247 3 0.111217 0.00620935 0.94374
248 3 0.395958 0.486794 0.0630491
249 3 0.658086 0.261555 0.552737
250 3 0.319291 0.751164 0.429135
251 3 0.565801 0.502815 0.926378
252 3 0.921738 0.998426 0.0584317
253 3 0.632658 0.769513 0.547302
254 3 0.365049 0.228891 0.454792
255 3 0.610225 0.0158299 0.948808
256 3 0.927323 0.509008 0.0459628
257 3 0.287627 0.222361 0.833489
258 3 0.697924 0.780911 0.186936
259 3 0.950154 0.482946 0.677568
260 3 0.535105 0.020149 0.313993
261 3 0.290575 0.735175 0.804664
262 3 0.719529 0.264504 0.175775
263 3 0.95584 0.98325 0.697701
264 3 0.543335 0.514204 0.313216
265 3 0.801552 0.233984 0.814052
266 3 0.19754 0.758985 0.168294
267 3 0.448409 0.482781 0.658075
268 3 0.0407928 0.0142153 0.32817
269 3 0.774675 0.738906 0.79888
270 3 0.230272 0.263188 0.199518
271 3 0.474539 0.985499 0.687877
272 3 0.0507269 0.515751 0.294077
273 3 0.231997 0.183303 0.860394
274 3 0.752849 0.813426 0.153486
275 3 0.00905705 0.446361 0.661311
276 3 0.482736 0.0562854 0.345603
277 3 0.234884 0.699691 0.831769
278 3 0.783095 0.296084 0.158745
279 3 0.00226046 0.944538 0.660658
280 3 0.491756 0.547428 0.352771
281 3 0.754875 0.198061 0.854832
282 3 0.247806 0.795177 0.132038
283 3 0.507837 0.44766 0.639487
284 3 0.982249 0.0459745 0.356387
285 3 0.718845 0.706189 0.831876
286 3 0.277534 0.303505 0.163974
287 3 0.525371 0.951951 0.648821
288 3 0.992812 0.553954 0.304443
289 3 0.349679 0.30095 0.82154
290 3 0.633889 0.694516 0.178464
291 3 0.889901 0.568175 0.689338
292 3 0.595675 0.938224 0.314286
293 3 0.354093 0.818906 0.789484
294 3 0.657225 0.182581 0.187097
295 3 0.905867 0.0702581 0.697178
296 3 0.602462 0.433863 0.293107
297 3 0.86011 0.314611 0.800937
298 3 0.141074 0.675325 0.183405
299 3 0.387369 0.563898 0.669838
300 3 0.0933449 0.931746 0.306445
301 3 0.835458 0.822219 0.779323
302 3 0.170657 0.178786 0.211141
303 3 0.412282 0.0664555 0.701116
304 3 0.107495 0.426584 0.313786
305 3 0.402421 0.342431 0.877961
306 3 0.583918 0.65724 0.107976
307 3 0.83897 0.606483 0.621907
308 3 0.660403 0.91228 0.38656
309 3 0.40205 0.859299 0.858572
310 3 0.591517 0.154322 0.114423
311 3 0.853808 0.10777 0.634161
312 3 0.65918 0.395739 0.349975
313 3 0.898693 0.362446 0.854074
314 3 0.0980999 0.630004 0.123133
315 3 0.334464 0.602776 0.605081
316 3 0.151484 0.89555 0.368461
317 3 0.889846 0.85881 0.848686
318 3 0.1045 0.153403 0.137775
319 3 0.347227 0.09366 0.63233
320 3 0.158824 0.397508 0.39773
321 3 0.25704 0.330999 0.66538
322 3 0.72423 0.669249 0.336521
323 3 0.985315 0.596724 0.842906
324 3 0.501382 0.914626 0.14598