LAMMPS data file via write_data, version 15 Apr 2020, timestep = 80000

576 atoms
4 atom types

-6.7271274584671303e-02 1.7771271747584109e+01 xlo xhi
-1.4179942323802273e+00 2.6529993744080151e+01 ylo yhi
-7.4217505062143374e-01 1.3555501733321371e+01 zlo zhi
-8.8962059910445435e-01 -2.8462679055668620e+00 5.5051814146534228e-01 xy xz yz

Masses

1 12.0107
2 1.00794
3 14.0067
4 15.9994

Atoms # full

359 1 3 1.6876467642645943e-01 -9.1674096768222402e-01 2.9895160968140067e+00 7.6085793319668582e+00 0 0 0
44 1 1 -2.2068027254106665e-01 -1.4579084441892105e+00 2.5765745253107625e+01 2.7618948930433365e+00 0 0 0
48 1 1 -2.2464143231146702e-01 -6.3575218179955995e-01 1.0546995173136322e+01 2.8137397202409207e+00 0 0 0
60 1 1 -2.1433472064523082e-01 -1.9182057893973299e+00 2.4507329403191505e+01 4.7867009609900659e+00 0 0 0
64 1 1 -2.2467822296075135e-01 -7.5356164008148341e-01 1.0783089121503830e+01 5.2457164698552932e+00 0 0 0
76 1 1 -2.2474557397281808e-01 -9.5226694670054368e-01 2.4370842567884957e+01 2.5857840378790442e+00 0 0 0
80 1 1 -2.3286038690856672e-01 1.3737820337820783e-01 9.3864540242310017e+00 3.4192822446946396e+00 0 0 0
83 1 1 -2.3257040260649939e-01 -2.0262589504523429e+00 1.7304902578027601e+01 1.0000642523765130e+01 0 0 0
87 1 1 -2.2932403616618696e-01 -8.7138877047729313e-01 3.4743203471168016e+00 9.0420244366134259e+00 0 0 0
140 1 2 2.6961946636040718e-01 -7.1824625777204587e-01 2.6580279683344948e+01 2.4512536958725679e+00 0 -1 0
144 1 2 2.6966095707057841e-01 -3.9694585582874309e-02 1.0909154035843367e+01 1.9597591898921376e+00 0 0 0
199 1 3 1.7076787044142130e-01 -1.2453559223038013e-01 1.0539962268332195e+00 8.8131560805137159e+00 0 0 0
227 1 3 1.8388185948199787e-01 -9.5305637905181584e-01 1.5191013648614355e+01 1.0752227779944821e+01 0 0 0
231 1 3 1.7653083796892574e-01 -1.2772159790359605e+00 1.8821584349007914e+00 1.0901851111992224e+01 0 0 0
247 1 3 3.3073378435079115e-01 -1.3679017926295125e+00 2.8389989578709454e+00 1.2081601942145126e+01 0 0 0
268 1 3 1.6707616484815035e-01 -1.5924789031809321e+00 2.6068071627274747e+01 4.1947861129493127e+00 0 -1 0
272 1 3 1.7587511966754585e-01 -6.2353336654955760e-01 1.1615852886861600e+01 3.9695182485965947e+00 0 0 0
348 1 3 3.4109102452837270e-01 -1.1479761703048805e+00 2.2165973110300261e+01 1.3964934907109381e+00 0 0 0
352 1 3 3.3638669673670041e-01 5.8472355394910913e-02 6.9553721389806658e+00 4.0101711991771083e+00 0 0 0
355 1 3 1.7314998532727138e-01 1.5181041399996548e+01 1.7426205606948241e+01 8.5969840846826067e+00 -1 0 0
371 1 3 3.4133445067098078e-01 -2.1415365758318226e+00 1.8709460309587051e+01 7.9214999614337831e+00 0 0 0
375 1 3 3.2985948453555247e-01 2.8677721810012091e-01 3.5227979413411550e+00 6.8260971644646666e+00 0 0 0
385 1 4 -2.8332299175540138e-01 -1.0559081564834112e+00 1.0541202668258025e+01 1.2473078228717846e+01 0 0 0
419 1 4 -2.9538393989879747e-01 -9.4128510361840645e-01 1.4981772293724877e+01 1.3231731213137341e+01 0 0 0
423 1 4 -2.6674350336449543e-01 -2.5108382296586598e+00 2.9465902692562826e+00 1.2680448946901963e+01 0 1 0
451 1 4 -3.2343227894060345e-01 -5.5290248054559243e-01 1.2559708841755738e+01 9.3358980010889532e+00 0 0 0
455 1 4 -2.5366102728028006e-01 -1.4836350090791015e+00 -6.8048968563674794e-01 1.1116343444978273e+01 0 1 0
490 1 4 -2.4717811713070681e-01 -8.3326286065422273e-01 1.6115123193637725e+01 1.6958454860392198e+00 0 0 0
528 1 4 -2.9003511543409355e-01 -7.1273072433524476e-01 6.0446785470895028e+00 4.4538529166659337e+00 0 0 0
563 1 4 -2.2493776376178537e-01 1.5609387637484463e+01 1.8911114967828052e+01 6.6536225101775237e+00 -1 0 0
567 1 4 -3.1164108271646590e-01 7.5535771067792901e-01 2.9135883188440506e+00 5.7974727703298061e+00 0 0 0
7 1 1 -2.2301354239039015e-01 -1.0645999511304680e+00 1.3574817205530256e+00 7.7026012055672037e+00 0 0 0
17 1 1 -2.3119075181992149e-01 1.6168086728667674e-01 9.1286231505719755e+00 1.0554915839827231e+01 0 0 0
19 1 1 -2.2929002168191770e-01 -9.0714423697113222e-01 1.6330774362285680e+01 9.7982980294712227e+00 0 0 0
21 1 1 -2.2524877182558301e-01 1.2167254503143674e+00 2.2611131478994370e+01 9.2653853280958032e+00 0 0 0
23 1 1 -2.2992865312947547e-01 -3.2203109272613251e-01 2.3651774001161523e+00 9.8905769672613424e+00 0 0 0
46 1 1 -2.3023489848803469e-01 2.7056148346799214e+00 4.4786009355240886e+00 3.4833992614632514e+00 0 0 0
58 1 1 -2.3198763613030693e-01 2.4480148691680643e+00 1.7120995265484240e+01 8.3917329377142402e-01 0 0 0
62 1 1 -2.2073649564130970e-01 2.7791964264206168e+00 4.1288470192982150e+00 1.0336374838925932e+00 0 0 0
74 1 1 -2.2780372289696069e-01 1.6611068025310800e+00 1.5858897980014422e+01 2.8587721839090618e+00 0 0 0
78 1 1 -2.2512110164907509e-01 1.8115212838926726e+00 3.3011000028287416e+00 3.0740216280752959e+00 0 0 0
81 1 1 -2.2975233252461955e-01 1.2420022175451781e+00 1.0208350031587436e+01 1.0316945766402748e+01 0 0 0
103 1 2 2.6814291848749899e-01 -7.7277793779872173e-01 1.0151869918082852e+00 6.6956302383664559e+00 0 0 0
113 1 2 2.7612932386491779e-01 -8.7270651258746024e-01 9.5184418515078040e+00 1.0480597762661885e+01 0 0 0
115 1 2 2.6919978994530308e-01 6.9173607595493181e-02 1.6820951069574424e+01 9.8914285827174098e+00 0 0 0
117 1 2 2.6199135917049643e-01 4.0267175636231745e-01 2.3466233370217115e+01 9.3183424053300516e+00 0 0 0
119 1 2 2.5578193118659986e-01 5.5813466696111158e-01 2.6206232573496591e+00 1.0512729428881837e+01 0 0 0
142 1 2 2.8734412124055214e-01 2.2466607150407700e+00 5.1809318595759102e+00 4.2265313719247288e+00 0 0 0
154 1 2 2.5587878128485630e-01 2.1154951992777948e+00 1.7382051754829313e+01 -1.7370570654650319e-01 0 0 0
156 1 2 2.6753821679271711e-01 -1.7852761822378422e+00 2.4520920391187410e+01 5.9263942717995759e+00 0 0 0
158 1 2 2.9508838428610723e-01 2.6520637161991281e+00 4.6597819285231825e+00 6.7322998569224635e-02 0 0 0
160 1 2 2.6756592722298678e-01 -4.7624315121907501e-01 1.1427625068655750e+01 6.0901280260962087e+00 0 0 0
170 1 2 2.6743405863200492e-01 6.6885508303881425e-01 1.5561139833429191e+01 3.2976462707022822e+00 0 0 0
172 1 2 2.7658719062007803e-01 3.6684749393454674e-02 2.4347639589025039e+01 2.1438274470987335e+00 0 0 0
174 1 2 2.7488008057443269e-01 9.0086099695226041e-01 3.4911016211423487e+00 3.5917242599517785e+00 0 0 0
176 1 2 2.6053550073019721e-01 1.1461910515390552e+00 9.2678950544112570e+00 3.0003874263948274e+00 0 0 0
177 1 2 2.7775727111522402e-01 7.4879169719576000e-01 1.1203582479648990e+01 1.0119375972454776e+01 0 0 0
179 1 2 2.7092372246951779e-01 -1.5935574060041811e+00 1.8267039163740332e+01 1.0265544372330186e+01 0 0 0
183 1 2 2.6718926696049417e-01 -1.8214466647147232e-01 4.3067887828504112e+00 9.0283288913007560e+00 0 0 0
193 1 3 1.8290997016752647e-01 3.4508857836785367e-01 8.6286720585427581e+00 1.2024358443280104e+01 0 0 0
195 1 3 1.7375371787622274e-01 -1.0337800589164350e+00 1.5749184834453889e+01 8.1939592922280617e+00 0 0 0
197 1 3 1.7894125516983886e-01 1.8029825271258999e+00 2.2482595817881595e+01 1.0699603892880669e+01 0 0 0
209 1 3 3.5466949832321681e-01 -5.3502692965454646e-01 9.4640488782666790e+00 1.2953395142734268e+01 0 0 0
211 1 3 3.4124512370786830e-01 -6.5135759635419621e-03 1.6463735817488573e+01 7.2620062121313715e+00 0 0 0
213 1 3 3.5637975922573978e-01 1.6571933163885166e+00 2.3811628479119889e+01 1.1499976486036813e+01 0 0 0
215 1 3 3.3640883327758103e-01 1.2946323639716928e+00 7.9230369212594898e-01 8.3033492038705905e+00 0 0 0
225 1 3 1.8951084876652233e-01 1.8337227356381458e-01 8.0288565460008670e+00 9.5315959230713165e+00 0 0 0
229 1 3 1.8339491960132487e-01 4.7536999180113182e-01 2.1368457695681368e+01 8.7954923335076707e+00 0 0 0
241 1 3 3.2247562119122258e-01 -1.7620432126817542e-01 8.5661572075036716e+00 8.1624876594333635e+00 0 0 0
243 1 3 3.2353210447690939e-01 -5.9204352854725872e-01 1.5682332577120075e+01 1.2173509106515969e+01 0 0 0
245 1 3 3.5323494345050449e-01 -3.4983203030361243e-01 2.1663259203930696e+01 7.5422548928348778e+00 0 0 0
266 1 3 1.6320580463087778e-01 2.1545193730808498e+00 1.8156884473880634e+01 1.9260695046336629e+00 0 0 0
270 1 3 1.7410721050222683e-01 2.8953724095368316e+00 5.2429504628111436e+00 2.1195459037844411e+00 0 0 0
273 1 3 3.3443141937049897e-01 9.0914659835097744e-01 5.9635102868910428e+00 1.1525121693835182e+01 0 0 0
277 1 3 3.2166036433983430e-01 1.4788612950982927e+00 1.9835276113380374e+01 1.1152427839966931e+01 0 0 0
298 1 3 1.6780007291677101e-01 1.5614865126349591e+00 1.5937514374414981e+01 1.2247598179546146e+00 0 0 0
300 1 3 1.7357282244890665e-01 -8.9202878509372097e-01 2.3689941994395696e+01 4.1495944463833885e+00 0 0 0
302 1 3 1.7944353658724260e-01 1.5319050565323180e+00 3.3880893722253784e+00 1.5310793063661081e+00 0 0 0
304 1 3 1.7392307433218387e-01 3.0664685430998539e-01 9.7269308844067996e+00 5.0066282909496032e+00 0 0 0
314 1 3 3.4744612627402793e-01 1.0518268315930301e-01 1.6116594707759550e+01 8.0454105137973375e-01 0 0 0
316 1 3 3.3804216975522028e-01 5.3748215397905730e-01 2.3893731271594493e+01 4.7021568349784530e+00 0 0 0
318 1 3 3.5580989841818456e-01 2.6604521603561682e-01 4.2128632193436104e+00 1.2256339624736279e+00 0 0 0
320 1 3 3.3199580350828628e-01 1.7222260479568940e+00 1.0198966014149310e+01 5.4104327924056888e+00 0 0 0
334 1 3 1.8735133582672792e-01 2.4894964322256508e+00 1.9565611497162037e+00 3.5716886679323157e+00 0 0 0
346 1 3 3.2527134339681307e-01 2.2610228991592591e+00 1.3445248657939898e+01 2.6793086845470704e+00 0 0 0
350 1 3 3.1906772901776265e-01 1.6403626982276736e+00 7.8630137231082609e-01 3.0437533250826094e+00 0 0 0
387 1 4 -3.0060761444952094e-01 9.1888594526664757e-01 1.7170175635287141e+01 7.7825393465446577e+00 0 0 0
389 1 4 -2.5583788357239812e-01 8.5944850050838495e-01 2.4680671940223629e+01 1.1034718973357633e+01 0 0 0
401 1 4 -2.5546833188477069e-01 2.1834238145443630e+00 8.5432147705197625e+00 -1.3130810200632803e-01 0 0 1
403 1 4 -2.7888901924062526e-01 -2.0477578058703383e-01 1.6305586692326170e+01 5.9947644598326715e+00 0 0 0
405 1 4 -2.4324372395966351e-01 2.5085909190519473e+00 2.3950657349917574e+01 1.2458410165684878e+01 0 0 0
407 1 4 -2.7113018825226320e-01 1.4439998712223425e+00 2.5427404060177872e-01 7.1329062362067592e+00 0 0 0
417 1 4 -3.1270692935636757e-01 3.5285325737531159e-01 8.0767201755342288e+00 7.0796903971498306e+00 0 0 0
421 1 4 -2.5503378374164981e-01 -2.1252391825299277e-01 2.0919399002141784e+01 6.5040642962855504e+00 0 0 0
433 1 4 -3.1369505765818528e-01 -1.1619192296318790e+00 9.3819107816739553e+00 8.1287620556944891e+00 0 0 0
435 1 4 -3.2197540093394056e-01 2.5726132151047310e-01 1.6627406305502884e+01 1.2241261549118452e+01 0 0 -1
437 1 4 -2.7888382709556747e-01 -1.2136540037098591e+00 2.2604527806129830e+01 7.5540233119446683e+00 0 0 0
439 1 4 -3.1176562082120274e-01 -3.2789976480000682e-01 3.3528900534232902e+00 1.2612587348487718e+01 0 0 -1
449 1 4 -3.2639331296498009e-01 -1.8028269448708389e-02 5.4922639435993430e+00 1.0750418062259874e+01 0 0 0
453 1 4 -3.0951016805967646e-01 2.4810263806006239e-01 1.9383647455284041e+01 1.1170933918666755e+01 0 0 0
465 1 4 -3.1384165971925732e-01 8.2076901780918377e-01 6.0959752419363706e+00 1.2781843443271800e+01 0 0 0
469 1 4 -2.6819389453721293e-01 1.9186872296083659e+00 2.0350946196966564e+01 1.2251828970353953e+01 0 0 0
471 1 4 -2.6436670733565154e-01 -2.4660619240854085e+00 2.6361553567774067e+01 9.0820035377181689e+00 0 0 0
474 1 4 -2.2483783786261091e-01 4.1455177460591236e-01 1.9234634544812852e+01 5.6648556380632842e-01 0 0 0
492 1 4 -2.6262226780786674e-01 1.5802134269480943e+00 2.3791921182082103e+01 3.9314290488733681e+00 0 0 0
494 1 4 -2.8031056805620286e-01 1.6989581968102136e+01 3.9386767306013830e+00 1.7925249550332567e+00 -1 0 0
506 1 4 -2.8544564935703742e-01 -1.8802449323072662e-01 1.6048925882933219e+01 -4.3614831569681978e-01 0 0 0
508 1 4 -3.0675485418569576e-01 6.6584149208496179e-01 2.4139665093966663e+01 5.9443819202939840e+00 0 0 0
510 1 4 -2.5055664392132077e-01 3.9166408613688347e-01 5.2546782475315243e+00 4.9287934680869228e-01 0 0 0
526 1 4 -2.9341217408569203e-01 2.0686631834589324e+00 -4.3604011016934408e-01 3.1371436329856897e+00 0 0 0
538 1 4 -3.1005935184832173e-01 1.0562009502843002e+00 1.3256561415341679e+01 2.2907385940576916e+00 0 0 0
540 1 4 -2.3727908913658824e-01 7.7819150885112376e-02 2.1892564603502020e+01 1.4918706888552458e+00 0 0 0
542 1 4 -3.0772973863121900e-01 3.9674271636808833e-01 9.9043394766526305e-01 2.8478818266534782e+00 0 0 0
544 1 4 -3.2347637417542385e-01 1.3314754238217503e+00 6.8012742979722489e+00 3.9175156702978624e+00 0 0 0
545 1 4 -2.5776940296418577e-01 1.2396031022665950e+00 1.2625160785486297e+01 1.1938698399410585e+01 0 0 0
547 1 4 -3.0840624318728738e-01 -1.4630692317661724e+00 1.9552392973599357e+01 8.5979242423254227e+00 0 0 0
551 1 4 -2.9434567050720062e-01 7.2477724479689520e-01 4.7079308947937895e+00 7.0989480016649615e+00 0 0 0
279 1 3 3.3780925036074205e-01 -1.9477591668975638e+00 -6.8801946205480591e-01 9.9135251151602475e+00 0 1 0
288 1 3 3.3095201249613804e-01 1.6168384764043044e+01 1.2759609654397872e+01 3.7829217094761329e+00 0 0 0
480 1 4 -2.7186768206660333e-01 1.5438156607827882e+01 1.3078610993809395e+01 4.7583934682556066e+00 0 0 0
467 1 4 -3.0803093294550582e-01 -1.3640882127499605e+00 1.3198439367264765e+01 7.3575068589046229e+00 0 0 0
519 1 4 -2.7218922131853551e-01 -1.9378005368580695e+00 6.0411766436868497e+00 8.4068851072994200e+00 1 0 0
3 1 1 -2.3089853727102871e-01 1.5422050078287535e+01 1.6076464189900676e+01 7.8533305332095811e+00 -1 0 0
99 1 2 2.9508519042850534e-01 1.5367529100411371e+01 1.6180769880655525e+01 6.7938469904056404e+00 -1 0 0
275 1 3 3.2611200748786995e-01 -1.4353747598075259e+00 1.3156596272746045e+01 8.6308833096715905e+00 0 0 0
327 1 3 1.8310981171349439e-01 1.5486979959811485e+01 3.9031638977774286e+00 9.5700073632876421e+00 0 0 0
336 1 3 1.8106365498184918e-01 -6.0319129196724774e-01 8.1116537470421388e+00 3.2437038606740987e+00 0 0 0
16 1 1 -2.1856176057053539e-01 1.5724224886222171e+01 1.0094668619468811e+01 5.4463372938120322e+00 0 0 0
112 1 2 2.8008331292486643e-01 1.5286952098126124e+01 1.0339689132882674e+01 6.4334847675714970e+00 0 0 0
343 1 3 3.5449176446328062e-01 1.5055125666569598e+01 5.2015657120916350e+00 8.8528746828166067e+00 0 0 0
368 1 3 1.9156459391482100e-01 1.5770195148852057e+01 8.5163438118292216e+00 5.3342124435841445e+00 0 0 0
428 1 4 -2.6291608712783210e-01 1.6360060233173950e+01 2.6152920683054564e+01 -1.4283400189136686e-01 0 -1 0
12 1 1 -2.2635880248141896e-01 1.4538800108300082e+01 2.4011818250244346e+01 4.4835170239806565e+00 0 0 0
108 1 2 2.7784042530615333e-01 1.4008997779713601e+01 2.3691888596395454e+01 5.3826346982949911e+00 0 0 0
515 1 4 -2.6513516059337666e-01 1.4092388501920098e+01 1.9042384500822095e+01 1.1603691421079862e+01 0 0 0
284 1 3 3.1490077569683056e-01 1.6021767210627075e+01 -9.3241833841255550e-01 4.5746477425775876e+00 0 0 0
332 1 3 1.5909434464500988e-01 1.6081905364533370e+01 2.3572245962490683e+01 1.5639759601455503e+00 -1 0 0
1 1 1 -2.2601591071509536e-01 1.8498453255286984e+00 8.9690413972731982e+00 1.2239211924708357e+01 0 0 0
4 1 1 -2.2656457182674267e-01 5.3161037695676523e+00 2.4329555184385931e+01 3.3853388519308361e+00 0 0 0
5 1 1 -2.2418587811465113e-01 3.2652844432515868e+00 2.2181716666774260e+01 1.0312120951742152e+01 0 0 0
10 1 1 -2.2977914447241526e-01 3.9630296223106258e+00 1.6809237442488417e+01 7.6769727929499920e-01 0 0 0
14 1 1 -2.2377725954770680e-01 4.0060534164198671e+00 3.1854430516482415e+00 9.4867325967689542e-01 0 0 0
15 1 1 -2.3002739720792284e-01 5.9125491137864525e+00 9.2595473397980710e-01 8.8659364038641879e+00 0 0 0
20 1 1 -2.2876293943329934e-01 6.1512534038056010e+00 2.5811889040105306e+01 1.6429668360427612e+00 0 0 0
24 1 1 -2.3049975201336217e-01 8.0959756797816471e+00 8.9115390715025242e+00 3.8766487527594578e+00 0 0 0
26 1 1 -2.2924902059830682e-01 4.4814900192931377e+00 1.6712909000481314e+01 3.1014527683593776e+00 0 0 0
30 1 1 -2.1953216009075907e-01 4.7678432913614852e+00 3.0365555947167362e+00 3.2526856518593306e+00 0 0 0
33 1 1 -2.2362117406237228e-01 1.6581350376481376e+00 7.3961294761541456e+00 9.5490230798160471e+00 0 0 0
37 1 1 -2.2457910231096137e-01 1.5648289192114206e+00 2.0318779964974894e+01 8.5625934618502146e+00 0 0 0
42 1 1 -2.3333668054611442e-01 2.0852784464753116e+00 1.7276390265858119e+01 3.2576421987312387e+00 0 0 0
43 1 1 -2.2937107413965094e-01 5.7998210395310883e+00 1.3417618082413679e+01 9.1539544958826404e+00 0 0 0
47 1 1 -2.1965310120460940e-01 6.5910813004407300e+00 1.3024166346248243e+00 1.1744276118824441e+01 0 0 0
49 1 1 -2.2004708934747139e-01 2.8027429952199507e+00 7.9482596467642086e+00 1.1591080261431507e+01 0 0 0
53 1 1 -2.2463379999432626e-01 3.5035820164854288e+00 2.0690909357115469e+01 9.8758957482570970e+00 0 0 0
59 1 1 -2.2099395995201132e-01 6.7325571626868719e+00 1.5536497275402994e+01 8.2739015734927399e+00 0 0 0
63 1 1 -2.2474597923214742e-01 5.5215818668460575e+00 5.2309388707670657e-02 1.0050706746282387e+01 0 0 0
65 1 1 -2.2602599170915100e-01 2.7080864524010542e+00 8.4915920049917837e+00 9.3210606194140748e+00 0 0 0
69 1 1 -2.2192531600084983e-01 2.6591839639079726e+00 2.0756012049343727e+01 7.6384342258784450e+00 0 0 0
75 1 1 -2.2767213185593821e-01 4.7152300951244932e+00 1.4468093437004928e+01 9.1381871985212726e+00 0 0 0
79 1 1 -2.2633487045720374e-01 5.1434281775777126e+00 1.7371817298301582e+00 1.1675906688526442e+01 0 0 0
85 1 1 -2.3020607407033852e-01 2.3472358354731813e+00 2.3057358287680611e+01 8.3291461972380922e+00 0 0 0
88 1 1 -2.3050444026281511e-01 9.5532163287293361e+00 8.4714537982021163e+00 3.6893845899583431e+00 0 0 0
90 1 1 -2.3131022380249294e-01 4.0932042425784934e+00 1.5284703819881063e+01 2.6708663382674507e+00 0 0 0
94 1 1 -2.3238225108866131e-01 3.8124887924605484e+00 1.8876599673086862e+00 2.9037125656789264e+00 0 0 0
97 1 2 2.6760642701807175e-01 1.9823188460437566e+00 9.0313861037618324e+00 1.3342001013961882e+01 0 0 0
100 1 2 2.8191007538129786e-01 4.4523584817456783e+00 2.3654280875251079e+01 3.5989635294117823e+00 0 0 0
101 1 2 2.7850975147146079e-01 3.9063165222389822e+00 2.2383771847569406e+01 1.1198133209313275e+01 0 0 0
106 1 2 2.7927243071151553e-01 4.3766975678989057e+00 1.6972621305202441e+01 -2.4525941190168932e-01 0 0 0
110 1 2 2.8214980215200436e-01 4.4215568204275879e+00 3.1823861203503503e+00 -5.3325113290092152e-02 0 0 0
111 1 2 2.5022900570153506e-01 5.6376030646019126e+00 4.2297049988629798e-01 7.9645059526973032e+00 0 0 0
116 1 2 2.8727975903961828e-01 5.8598885183544436e+00 2.6015936372633245e+01 5.7726574318396473e-01 0 0 0
120 1 2 2.7459999720637635e-01 7.4334676971757556e+00 7.9639629798590565e+00 3.8773227658445890e+00 0 0 0
122 1 2 2.7783345113569963e-01 5.4753024511342154e+00 1.6683574448794541e+01 3.5977052981869404e+00 0 0 0
126 1 2 2.9485284745773066e-01 5.6920257058448369e+00 2.5818915511740097e+00 3.8241748567954286e+00 0 0 0
129 1 2 2.5986758418989331e-01 1.6647472324122501e+00 6.6505568671764621e+00 8.6809450740369574e+00 0 0 0
133 1 2 2.7016566188594249e-01 1.0562976566593305e+00 1.9449097010072098e+01 8.1998821244341880e+00 0 0 0
138 1 2 2.7857811588418507e-01 1.3403744891491947e+00 1.7729532588583556e+01 3.8479821734536763e+00 0 0 0
139 1 2 2.7793409014207160e-01 5.4353391390891472e+00 1.2469695097055226e+01 8.8128327419456589e+00 0 0 0
143 1 2 2.8172399029030781e-01 6.8714175397180099e+00 1.0152695776268414e+00 1.2765265844792067e+01 0 1 0
145 1 2 2.6877912637380103e-01 3.3826996310626014e+00 7.4434037746841231e+00 1.2369067964508416e+01 0 0 0
149 1 2 2.6190133697433365e-01 4.2316431294677708e+00 2.0132134071148862e+01 1.0530747670192778e+01 0 0 0
155 1 2 2.8699936440493118e-01 7.2721988384514420e+00 1.5982880807512270e+01 7.4237507811598444e+00 0 0 0
159 1 2 2.8781544423079408e-01 5.2868364590341494e+00 -9.3516950950145739e-01 9.7477414895058470e+00 0 0 0
161 1 2 2.6963329018269355e-01 3.3017565966268609e+00 8.3042304552093960e+00 8.3769566019085211e+00 0 0 0
165 1 2 2.8972196199444844e-01 2.7795263662061842e+00 2.0181479554639235e+01 6.7558841316069511e+00 0 0 0
171 1 2 2.7892162500841189e-01 3.7553712567191653e+00 1.4201799002618621e+01 8.7363055374722016e+00 0 0 0
175 1 2 2.7793234435346004e-01 4.6713053200549659e+00 1.8439401395131103e+00 1.2634206989788957e+01 0 0 0
180 1 2 2.7504031037636761e-01 7.3986489848423531e+00 2.4188987850309193e+01 7.5853347339108423e-01 0 0 0
181 1 2 2.7309222220742113e-01 2.2222220106540655e+00 2.4047339999692706e+01 7.9487717738840278e+00 0 0 0
184 1 2 2.6008322594277189e-01 9.5282458500263445e+00 7.3720222787155283e+00 3.4773591700363253e+00 0 0 0
186 1 2 2.6500919792328681e-01 4.7931231421136289e+00 1.4563994184657663e+01 3.1221838081222564e+00 0 0 0
190 1 2 2.8096584042591050e-01 4.2400399994131357e+00 9.4689478779466141e-01 3.3013777927698964e+00 0 0 0
196 1 3 1.8635380491163756e-01 4.8251388853726054e+00 2.5440057875382667e+01 2.3940075974097192e+00 0 0 0
200 1 3 1.8053296732507521e-01 7.9588167229691100e+00 9.6224931985077422e+00 5.2266094168004980e+00 0 0 0
202 1 3 1.6793289235362510e-01 4.7645780338984194e+00 1.7576293747344153e+01 1.7643478996325710e+00 0 0 0
206 1 3 1.7670414788256880e-01 5.1772952268892354e+00 3.6408542765960794e+00 1.9292259111078640e+00 0 0 0
212 1 3 3.6552859578934671e-01 3.7540414190851674e+00 2.5062199680355345e+01 1.3639171878030356e+00 0 0 0
216 1 3 3.5286040905939542e-01 7.3945187269343036e+00 8.7156433873077610e+00 6.3262020680358084e+00 0 0 0
218 1 3 3.3708875550406803e-01 6.2750253510906235e+00 1.7579895684448392e+01 1.4604999813590380e+00 0 0 0
222 1 3 3.4545050264322225e-01 6.5730863532489359e+00 3.1325356358886438e+00 1.5537313567073818e+00 0 0 0
228 1 3 1.7158248713784680e-01 7.6483966854718375e+00 -9.0825849469332298e-01 2.2398905901042090e+00 0 1 0
232 1 3 1.7925939206013958e-01 7.5699251868359845e+00 9.7485209860255857e+00 2.7081033282227565e+00 0 0 0
234 1 3 1.8664070162725990e-01 3.4206893580205628e+00 1.7218548828277946e+01 4.0437328150161660e+00 0 0 0
238 1 3 1.8234444123207685e-01 3.9776038249724213e+00 4.0331623487452628e+00 4.1925250327254311e+00 0 0 0
244 1 3 3.2783888332888178e-01 8.7285427580248633e+00 -2.9901877977997349e-01 1.3471597474548505e+00 0 1 0
248 1 3 3.3487307674107059e-01 7.5327888301408770e+00 8.9759493901117633e+00 1.3761965517585515e+00 0 0 0
250 1 3 3.4221151588998594e-01 3.7549625957212003e+00 1.8635823824863877e+01 4.5881714797418214e+00 0 0 0
254 1 3 3.6248862094732098e-01 4.7638033624951062e+00 5.2114992484770717e+00 4.7994372091092563e+00 0 0 0
257 1 3 1.7620323874530711e-01 2.0413864480609769e+00 6.7099965551286491e+00 1.0816059922366549e+01 0 0 0
261 1 3 1.6005282030473894e-01 2.2639056380361735e+00 1.9746196596633784e+01 9.8808644937057366e+00 0 0 0
267 1 3 1.7616349604004158e-01 6.8041270987311666e+00 1.3867012071656701e+01 8.1625356366964255e+00 0 0 0
271 1 3 1.8572160123570250e-01 6.6329770666776522e+00 -1.0994906548209582e-01 1.1144901816402621e+01 0 1 0
276 1 3 3.2188246008452015e-01 5.8833966413719114e+00 -6.2666664350568624e-01 4.4115906331518220e+00 0 0 0
280 1 3 3.3541646473676312e-01 7.1475320739482573e+00 1.2096846311544990e+01 4.3505634310516612e+00 0 0 0
282 1 3 3.5143233568073123e-01 8.6004940550483888e-01 1.8957691216955237e+01 1.7536185997704821e+00 0 0 0
286 1 3 3.3411862286703653e-01 3.9127196844030347e+00 6.3041195297882444e+00 1.7121147130449459e+00 0 0 0
287 1 3 3.4279986932345674e-01 8.0452805591681926e+00 -4.3526919893656268e-01 1.0675741951068408e+01 0 1 0
289 1 3 1.8355425377070295e-01 3.7074313856771992e+00 8.5010931108017811e+00 1.0541155547425394e+01 0 0 0
293 1 3 1.8617211549408036e-01 4.0543636831515784e+00 2.0487312278187570e+01 8.4993769957080882e+00 0 0 0
299 1 3 1.7746277272702882e-01 5.3045158845914306e+00 1.5760317410047893e+01 8.1815533696129563e+00 0 0 0
303 1 3 1.7926239716655751e-01 4.3405824135606377e+00 6.5846670301519250e-01 1.0854754221216018e+01 0 0 0
305 1 3 3.5399691752058043e-01 4.9170983470724661e+00 7.5517803018553895e+00 1.0275864092503738e+01 0 0 0
309 1 3 3.3944282793294511e-01 4.5908274816592956e+00 1.9101065310095500e+01 8.1915005615620800e+00 0 0 0
315 1 3 3.3526413026812246e-01 4.8260587839808196e+00 1.5785475960179049e+01 6.7028262073894549e+00 0 0 0
319 1 3 3.5145799191172694e-01 3.7319455875341085e+00 -4.1610413551649073e-01 1.1769472650130039e+01 0 0 0
321 1 3 1.5977069799090357e-01 2.0823738391672650e+00 9.8714042226799830e+00 9.0832473069197803e+00 0 0 0
325 1 3 1.8134773198248674e-01 2.5217866974876868e+00 2.2194155731654295e+01 7.0899686946634857e+00 0 0 0
330 1 3 1.6500896947931565e-01 2.6487894590347412e+00 1.4809277612825284e+01 3.2381654006899163e+00 0 0 0
331 1 3 1.8298945364661318e-01 4.4094996529789450e+00 1.5012277114433598e+01 1.0508680091542947e+01 0 0 0
335 1 3 1.7574268103445714e-01 4.9896915423927073e+00 3.1982365988770525e+00 1.1169092539475781e+01 0 0 0
337 1 3 3.3436393202270259e-01 3.1025058446311147e+00 1.0973118555466232e+01 8.7630409724023863e+00 0 0 0
341 1 3 3.2935126713676793e-01 3.7139969906926078e+00 2.2676134943071254e+01 6.2657435856676376e+00 0 0 0
347 1 3 3.4385631503181979e-01 3.2722589927985402e+00 1.6053356338633751e+01 1.0343321607762993e+01 0 0 0
351 1 3 3.1648863597658433e-01 3.5176798499453290e+00 3.6326836784017802e+00 1.1058439257246647e+01 0 0 0
353 1 3 1.8373112187535512e-01 2.0739253396662103e+00 1.0345160580267761e+01 1.1644521956940217e+01 0 0 0
356 1 3 1.6634052299208071e-01 6.2889211463664463e+00 2.3532930726724853e+01 2.5346592002623374e+00 0 0 0
357 1 3 1.6255849122704003e-01 3.6592283501316212e+00 2.3128694074319682e+01 9.2173097263424246e+00 0 0 0
362 1 3 1.7649886054462069e-01 4.1671295783481090e+00 1.5277590768346780e+01 1.1705545820598036e+00 0 0 0
366 1 3 1.6649236322228800e-01 3.6916697142183508e+00 1.7566791640437081e+00 1.3102575602077957e+00 0 0 0
369 1 3 3.5872492795801592e-01 1.5860423368001535e+00 1.1523965964075419e+01 1.2497149193466106e+01 0 0 0
372 1 3 3.4781631863578999e-01 5.5434850824495427e+00 2.2505507308002230e+01 1.6674241340116440e+00 0 0 0
373 1 3 3.1831483777462871e-01 4.0267676243173973e+00 2.4537458751068339e+01 9.7354695200325807e+00 0 0 0
376 1 3 3.3778400104957018e-01 1.0393012400353946e+01 7.7293457628162852e+00 6.0312714963095191e+00 0 0 0
378 1 3 3.5627623297485583e-01 5.4997977611483702e+00 1.4748244484624887e+01 5.7418095966025207e-01 0 0 0
382 1 3 3.3870778880843100e-01 4.6658474949735735e+00 6.9695201950854191e-01 7.5051697472800694e-01 0 0 0
388 1 4 -2.4223275880655501e-01 4.1392545395925984e+00 2.5065393469243503e+01 1.1701769915319227e-01 0 0 0
391 1 4 -3.1251137731600087e-01 2.2964477417570737e+00 9.0819487958562828e-01 9.0845426542068601e+00 0 0 0
392 1 4 -2.2636610846769578e-01 6.7630719868359863e+00 7.6425752246952481e+00 5.9656614644824240e+00 0 0 0
394 1 4 -3.1774110732668948e-01 7.1058427954015198e+00 1.7457463339847919e+01 2.4446009815137462e+00 0 0 0
398 1 4 -2.7502685920233433e-01 7.3629311663197949e+00 2.7383043698223881e+00 2.4900835415839309e+00 0 0 0
404 1 4 -2.4806579409811180e-01 2.6317628299968514e+00 2.4677650238205459e+01 1.7918175654492101e+00 0 0 0
408 1 4 -2.8147569628939306e-01 7.6560304989821635e+00 8.9581161631671122e+00 7.5508066079527794e+00 0 0 0
410 1 4 -2.6297399123355197e-01 6.6188544651125047e+00 1.7702531383940883e+01 2.4834056832060658e-01 0 0 0
414 1 4 -2.5720570106101820e-01 7.0146357587202859e+00 3.1855611284682954e+00 3.5365851335881282e-01 0 0 0
424 1 4 -2.6771499895627021e-01 7.5342128030496074e+00 9.6653967342721874e+00 2.7391013464301284e-01 0 0 0
426 1 4 -2.9971745546488732e-01 2.8087388135261149e+00 1.9442447136690902e+01 4.8644662332849613e+00 0 0 0
430 1 4 -2.3186244120967478e-01 4.1096553467849839e+00 6.1265201207133249e+00 5.4031341236578410e+00 0 0 0
436 1 4 -3.2190184499157715e-01 8.7709853294812277e+00 -4.4377973631783207e-01 8.7612044373982956e-02 0 1 1
440 1 4 -2.7175890244569600e-01 7.3645894998099291e+00 7.7255227222309095e+00 1.3840019677593771e+00 0 0 1
442 1 4 -2.4787554666780254e-01 4.9799794430867621e+00 1.8979719095182418e+01 4.7271883455819870e+00 0 0 0
446 1 4 -2.2540731226790037e-01 6.0507232662174619e+00 5.1927457930621825e+00 4.7950438316307444e+00 0 0 0
452 1 4 -3.4687720405154138e-01 6.0171807644198827e+00 4.9777991420776013e-01 3.8180334639366951e+00 0 0 0
456 1 4 -2.5794171507880254e-01 6.0102626903108796e+00 1.1839702697504116e+01 3.7555856504793770e+00 0 0 0
458 1 4 -2.3871529924551380e-01 1.9848440912716037e-01 1.9285629802236976e+01 2.8034663259012422e+00 0 0 0
462 1 4 -2.5694440833791948e-01 4.3295607540318697e+00 7.1211269981614613e+00 2.6093953520693618e+00 0 0 0
468 1 4 -2.8343403311152315e-01 4.7440698115599558e+00 -1.1853080899955379e+00 4.6450304101149511e+00 0 0 0
472 1 4 -3.0078698734571135e-01 7.2156858666745674e+00 1.2275023099582612e+01 5.6173421531235457e+00 0 0 0
478 1 4 -2.9157091851946915e-01 4.5772116778213512e+00 6.1108172832219045e+00 6.1163299376013103e-01 0 0 0
479 1 4 -2.8851845111879487e-01 7.3227708111721981e+00 2.6592450118391294e+01 9.7904721932907055e+00 0 0 0
481 1 4 -2.3679794199383331e-01 5.5268780588225122e+00 7.5817920618002006e+00 9.1617590239800766e+00 0 0 0
485 1 4 -2.9803194523603233e-01 3.7758755434789451e+00 1.8256207372685974e+01 7.6400103963134249e+00 0 0 0
491 1 4 -2.8939597468913869e-01 3.5802459556312964e+00 1.5698844916064250e+01 6.4766909829694397e+00 0 0 0
495 1 4 -2.8394465839966010e-01 3.6767928883033014e+00 2.6748468728923569e+01 1.2305109755053738e+01 0 -1 0
496 1 4 -2.4027493422187143e-01 2.7496384365670652e+00 9.5085960153712303e+00 5.0990620714308914e+00 0 0 0
497 1 4 -2.7937980768208248e-01 5.2597122453362459e+00 6.7802274400590488e+00 1.1234853090921321e+01 0 0 0
501 1 4 -3.0150002792363356e-01 5.6499300424300101e+00 1.8680935736103034e+01 8.7741312872312207e+00 0 0 0
507 1 4 -3.0994603147965383e-01 5.7031256930020202e+00 1.5888389257290800e+01 5.7542642940502704e+00 0 0 0