ITEM: TIMESTEP
0
ITEM: NUMBER OF ATOMS
672
ITEM: BOX BOUNDS xy xz yz pp pp pp
0.0000000000000000e+00 2.9982000351000000e+01 0.0000000000000000e+00
0.0000000000000000e+00 1.2154000282300000e+01 0.0000000000000000e+00
0.0000000000000000e+00 2.0017000198400002e+01 0.0000000000000000e+00
ITEM: ATOMS id type xs ys zs
1 1 0.141737 0.0702469 0.15481
2 1 0.641737 0.0702469 0.15481
3 1 0.358263 0.929753 0.65481
4 1 0.858263 0.929753 0.65481
5 1 0.391737 0.929753 0.15481
6 1 0.891737 0.929753 0.15481
7 1 0.108263 0.0702469 0.65481
8 1 0.608263 0.0702469 0.65481
9 1 0.141737 0.570247 0.15481
10 1 0.641737 0.570247 0.15481
11 1 0.358263 0.429753 0.65481
12 1 0.858263 0.429753 0.65481
13 1 0.391737 0.429753 0.15481
14 1 0.891737 0.429753 0.15481
15 1 0.108263 0.570247 0.65481
16 1 0.608263 0.570247 0.65481
17 1 0.188976 0.0446635 0.151695
18 1 0.688976 0.0446635 0.151695
19 1 0.311024 0.955337 0.651695
20 1 0.811024 0.955337 0.651695
21 1 0.438976 0.955337 0.151695
22 1 0.938976 0.955337 0.151695
23 1 0.0610237 0.0446635 0.651695
24 1 0.561024 0.0446635 0.651695
25 1 0.188976 0.544664 0.151695
26 1 0.688976 0.544664 0.151695
27 1 0.311024 0.455336 0.651695
28 1 0.811024 0.455336 0.651695
29 1 0.438976 0.455336 0.151695
30 1 0.938976 0.455336 0.151695
31 1 0.0610238 0.544664 0.651695
32 1 0.561024 0.544664 0.651695
33 1 0.215338 0.114614 0.110309
34 1 0.715338 0.114614 0.110309
35 1 0.284662 0.885386 0.610309
36 1 0.784662 0.885386 0.610309
37 1 0.465338 0.885386 0.110309
38 1 0.965338 0.885386 0.110309
39 1 0.0346623 0.114614 0.610309
40 1 0.534662 0.114614 0.610309
41 1 0.215338 0.614614 0.110309
42 1 0.715338 0.614614 0.110309
43 1 0.284662 0.385386 0.610309
44 1 0.784663 0.385386 0.610309
45 1 0.465338 0.385386 0.110309
46 1 0.965338 0.385386 0.110309
47 1 0.0346625 0.614614 0.610309
48 1 0.534663 0.614614 0.610309
49 1 0.195248 0.201576 0.0727719
50 1 0.695248 0.201576 0.0727719
51 1 0.304752 0.798424 0.572772
52 1 0.804752 0.798424 0.572772
53 1 0.445248 0.798424 0.0727719
54 1 0.945248 0.798424 0.0727719
55 1 0.0547516 0.201576 0.572772
56 1 0.554752 0.201576 0.572772
57 1 0.195248 0.701576 0.0727719
58 1 0.695248 0.701576 0.0727719
59 1 0.304752 0.298424 0.572772
60 1 0.804752 0.298424 0.572772
61 1 0.445248 0.298424 0.0727719
62 1 0.945248 0.298424 0.0727719
63 1 0.0547517 0.701576 0.572772
64 1 0.554752 0.701576 0.572772
65 1 0.148074 0.222317 0.0781798
66 1 0.648074 0.222317 0.0781798
67 1 0.351926 0.777683 0.57818
68 1 0.851926 0.777683 0.57818
69 1 0.398074 0.777683 0.0781798
70 1 0.898074 0.777683 0.0781798
71 1 0.101926 0.222317 0.57818
72 1 0.601926 0.222317 0.57818
73 1 0.148074 0.722317 0.0781799
74 1 0.648074 0.722317 0.0781799
75 1 0.351926 0.277683 0.57818
76 1 0.851926 0.277683 0.57818
77 1 0.398074 0.277683 0.0781799
78 1 0.898074 0.277683 0.0781799
79 1 0.101926 0.722317 0.57818
80 1 0.601925 0.722317 0.57818
81 1 0.120142 0.156122 0.118539
82 1 0.620142 0.156122 0.118539
83 1 0.379858 0.843878 0.618539
84 1 0.879858 0.843878 0.618539
85 1 0.370142 0.843878 0.118539
86 1 0.870142 0.843878 0.118539
87 1 0.129858 0.156122 0.618539
88 1 0.629858 0.156122 0.618539
89 1 0.120141 0.656122 0.118539
90 1 0.620141 0.656122 0.118539
91 1 0.379859 0.343878 0.618539
92 1 0.879859 0.343878 0.618539
93 1 0.370141 0.343878 0.118539
94 1 0.870141 0.343878 0.118539
95 1 0.129859 0.656122 0.618539
96 1 0.629859 0.656122 0.618539
97 1 0.115508 0.999087 0.205327
98 1 0.615508 0.999087 0.205328
99 1 0.384492 0.000913076 0.705328
100 1 0.884492 0.00091308 0.705328
101 1 0.365508 0.000913076 0.205327
102 1 0.865508 0.000913077 0.205328
103 1 0.134492 0.999087 0.705328
104 1 0.634492 0.999087 0.705328
105 1 0.115508 0.499087 0.205328
106 1 0.615508 0.499087 0.205328
107 1 0.384492 0.500913 0.705328
108 1 0.884492 0.500913 0.705328
109 1 0.365508 0.500913 0.205328
110 1 0.865508 0.500913 0.205328
111 1 0.134492 0.499087 0.705328
112 1 0.634492 0.499087 0.705328
113 1 0.26382 0.184901 0.844465
114 1 0.763821 0.184901 0.844465
115 1 0.23618 0.815099 0.344465
116 1 0.73618 0.815099 0.344465
117 1 0.0138204 0.815099 0.844465
118 1 0.51382 0.815099 0.844465
119 1 0.486179 0.184901 0.344465
120 1 0.986179 0.184901 0.344465
121 1 0.26382 0.684901 0.844465
122 1 0.76382 0.684901 0.844465
123 1 0.23618 0.315099 0.344465
124 1 0.73618 0.315099 0.344465
125 1 0.0138204 0.315099 0.844465
126 1 0.51382 0.315099 0.844465
127 1 0.48618 0.684901 0.344465
128 1 0.98618 0.684901 0.344465
129 1 0.311109 0.203368 0.84805
130 1 0.811109 0.203368 0.84805
131 1 0.188891 0.796632 0.34805
132 1 0.688891 0.796632 0.34805
133 1 0.0611092 0.796632 0.84805
134 1 0.561109 0.796632 0.84805
135 1 0.438891 0.203368 0.34805
136 1 0.938891 0.203368 0.34805
137 1 0.311109 0.703368 0.84805
138 1 0.811109 0.703368 0.84805
139 1 0.188891 0.296632 0.34805
140 1 0.688891 0.296632 0.34805
141 1 0.0611092 0.296632 0.84805
142 1 0.561109 0.296632 0.84805
143 1 0.438891 0.703368 0.34805
144 1 0.938891 0.703368 0.34805
145 1 0.336911 0.132551 0.889901
146 1 0.836911 0.132551 0.889901
147 1 0.163089 0.867449 0.389901
148 1 0.663089 0.867449 0.389901
149 1 0.0869107 0.867449 0.889901
150 1 0.586911 0.867449 0.889901
151 1 0.413089 0.132551 0.389901
152 1 0.913089 0.132551 0.389901
153 1 0.336911 0.632551 0.889901
154 1 0.836911 0.632551 0.889901
155 1 0.163089 0.367449 0.389901
156 1 0.663089 0.367449 0.389901
157 1 0.0869107 0.367449 0.889901
158 1 0.586911 0.367449 0.889901
159 1 0.413089 0.632551 0.389901
160 1 0.913089 0.632551 0.389901
161 1 0.316948 0.0427771 0.925058
162 1 0.816948 0.0427771 0.925058
163 1 0.183052 0.957223 0.425058
164 1 0.683052 0.957223 0.425058
165 1 0.0669475 0.957223 0.925058
166 1 0.566948 0.957223 0.925058
167 1 0.433052 0.0427771 0.425058
168 1 0.933052 0.0427771 0.425058
169 1 0.316948 0.542777 0.925058
170 1 0.816948 0.542777 0.925058
171 1 0.183052 0.457223 0.425058
172 1 0.683052 0.457223 0.425058
173 1 0.0669475 0.457223 0.925058
174 1 0.566948 0.457223 0.925058
175 1 0.433052 0.542777 0.425058
176 1 0.933052 0.542777 0.425058
177 1 0.270215 0.0229598 0.919217
178 1 0.770215 0.0229598 0.919217
179 1 0.229785 0.97704 0.419217
180 1 0.729785 0.97704 0.419217
181 1 0.020215 0.97704 0.919217
182 1 0.520215 0.97704 0.919217
183 1 0.479785 0.0229598 0.419217
184 1 0.979785 0.0229598 0.419217
185 1 0.270215 0.52296 0.919217
186 1 0.770215 0.52296 0.919217
187 1 0.229785 0.47704 0.419217
188 1 0.729785 0.47704 0.419217
189 1 0.020215 0.47704 0.919217
190 1 0.520215 0.47704 0.919217
191 1 0.479785 0.52296 0.419217
192 1 0.979785 0.52296 0.419217
193 1 0.24283 0.096432 0.881002
194 1 0.74283 0.096432 0.881002
195 1 0.25717 0.903568 0.381002
196 1 0.75717 0.903568 0.381002
197 1 0.49283 0.903568 0.881002
198 1 0.99283 0.903568 0.881002
199 1 0.00716994 0.096432 0.381002
200 1 0.50717 0.096432 0.381002
201 1 0.24283 0.596432 0.881002
202 1 0.74283 0.596432 0.881002
203 1 0.25717 0.403568 0.381002
204 1 0.75717 0.403568 0.381002
205 1 0.49283 0.403568 0.881002
206 1 0.99283 0.403568 0.881002
207 1 0.00716993 0.596432 0.381002
208 1 0.50717 0.596432 0.381002
209 1 0.23156 0.250311 0.799444
210 1 0.73156 0.250311 0.799444
211 1 0.26844 0.749689 0.299444
212 1 0.76844 0.749689 0.299444
213 1 0.48156 0.749689 0.799444
214 1 0.98156 0.749689 0.799444
215 1 0.01844 0.250311 0.299444
216 1 0.51844 0.250311 0.299444
217 1 0.23156 0.750311 0.799444
218 1 0.73156 0.750311 0.799444
219 1 0.26844 0.249689 0.299444
220 1 0.76844 0.249689 0.299444
221 1 0.48156 0.249689 0.799444
222 1 0.98156 0.249689 0.799444
223 1 0.01844 0.750311 0.299444
224 1 0.51844 0.750311 0.299444
225 2 0.211317 0.957902 0.193344
226 2 0.711317 0.957902 0.193344
227 2 0.288683 0.042098 0.693344
228 2 0.788683 0.042098 0.693344
229 2 0.461317 0.0420981 0.193344
230 2 0.961317 0.042098 0.193344
231 2 0.0386834 0.957902 0.693344
232 2 0.538683 0.957902 0.693344
233 2 0.211316 0.457902 0.193344
234 2 0.711316 0.457902 0.193344
235 2 0.288684 0.542098 0.693344
236 2 0.788684 0.542098 0.693344
237 2 0.461316 0.542098 0.193344
238 2 0.961316 0.542098 0.193344
239 2 0.0386835 0.457902 0.693344
240 2 0.538684 0.457902 0.693344
241 2 0.222773 0.271283 0.0274498
242 2 0.722773 0.271283 0.0274498
243 2 0.277227 0.728717 0.52745
244 2 0.777227 0.728717 0.52745
245 2 0.472773 0.728717 0.0274498
246 2 0.972773 0.728717 0.0274498
247 2 0.0272274 0.271283 0.52745
248 2 0.527227 0.271283 0.52745
249 2 0.222773 0.771283 0.0274498
250 2 0.722773 0.771283 0.0274498
251 2 0.277227 0.228717 0.52745
252 2 0.777227 0.228717 0.52745
253 2 0.472773 0.228717 0.0274498
254 2 0.972773 0.228717 0.0274498
255 2 0.0272274 0.771283 0.52745
256 2 0.527227 0.771283 0.52745
257 2 0.0700811 0.175678 0.121851
258 2 0.570081 0.175678 0.121851
259 2 0.429919 0.824322 0.621851
260 2 0.929919 0.824322 0.621851
261 2 0.320081 0.824322 0.121851
262 2 0.820081 0.824322 0.121851
263 2 0.179919 0.175678 0.621851
264 2 0.679919 0.175678 0.621851
265 2 0.0700813 0.675677 0.121851
266 2 0.570081 0.675677 0.121851
267 2 0.429919 0.324322 0.621851
268 2 0.929919 0.324323 0.621851
269 2 0.320081 0.324322 0.121851
270 2 0.820081 0.324322 0.121851
271 2 0.179919 0.675677 0.621851
272 2 0.679919 0.675678 0.621851
273 2 0.334765 0.289086 0.807453
274 2 0.834765 0.289086 0.807453
275 2 0.165235 0.710914 0.307453
276 2 0.665235 0.710914 0.307453
277 2 0.0847652 0.710914 0.807453
278 2 0.584765 0.710914 0.807453
279 2 0.415235 0.289086 0.307453
280 2 0.915235 0.289086 0.307453
281 2 0.334765 0.789087 0.807453
282 2 0.834765 0.789086 0.807453
283 2 0.165235 0.210914 0.307453
284 2 0.665235 0.210914 0.307453
285 2 0.0847652 0.210914 0.807453
286 2 0.584765 0.210914 0.807453
287 2 0.415235 0.789086 0.307453
288 2 0.915235 0.789086 0.307453
289 2 0.344894 0.969504 0.968159
290 2 0.844894 0.969504 0.968159
291 2 0.155106 0.030496 0.468159
292 2 0.655106 0.030496 0.468159
293 2 0.0948936 0.030496 0.968159
294 2 0.594894 0.030496 0.968159
295 2 0.405106 0.969504 0.468159
296 2 0.905106 0.969504 0.468159
297 2 0.344894 0.469504 0.968159
298 2 0.844894 0.469504 0.968159
299 2 0.155106 0.530496 0.468159
300 2 0.655106 0.530496 0.468159
301 2 0.0948936 0.530496 0.968159
302 2 0.594894 0.530496 0.968159
303 2 0.405106 0.469504 0.468159
304 2 0.905106 0.469504 0.468159
305 2 0.193433 0.0779305 0.87984
306 2 0.693433 0.0779305 0.87984
307 2 0.306567 0.92207 0.37984
308 2 0.806567 0.92207 0.37984
309 2 0.443433 0.92207 0.87984
310 2 0.943433 0.92207 0.87984
311 2 0.056567 0.0779305 0.37984
312 2 0.556567 0.0779305 0.37984
313 2 0.193433 0.57793 0.87984
314 2 0.693433 0.57793 0.87984
315 2 0.306567 0.42207 0.37984
316 2 0.806567 0.42207 0.37984
317 2 0.443433 0.42207 0.87984
318 2 0.943433 0.42207 0.87984
319 2 0.056567 0.57793 0.37984
320 2 0.556567 0.57793 0.37984
321 3 0.193121 0.862007 0.193811
322 3 0.693121 0.862007 0.193811
323 3 0.306879 0.137993 0.693811
324 3 0.806879 0.137993 0.693811
325 3 0.443121 0.137993 0.193811
326 3 0.943121 0.137993 0.193811
327 3 0.0568791 0.862007 0.693811
328 3 0.556879 0.862007 0.693811
329 3 0.193121 0.362007 0.193811
330 3 0.693121 0.362007 0.193811
331 3 0.306879 0.637993 0.693811
332 3 0.806879 0.637993 0.693811
333 3 0.443121 0.637993 0.193811
334 3 0.943121 0.637993 0.193811
335 3 0.0568791 0.362007 0.693811
336 3 0.556879 0.362007 0.693811
337 3 0.247865 0.985765 0.222373
338 3 0.747865 0.985765 0.222373
339 3 0.252135 0.0142354 0.722373
340 3 0.752135 0.0142354 0.722373
341 3 0.497865 0.0142354 0.222373
342 3 0.997865 0.0142354 0.222373
343 3 0.00213534 0.985765 0.722373
344 3 0.502135 0.985765 0.722373
345 3 0.247865 0.485765 0.222373
346 3 0.747864 0.485765 0.222373
347 3 0.252135 0.514235 0.722373
348 3 0.752136 0.514235 0.722373
349 3 0.497865 0.514235 0.222373
350 3 0.997864 0.514235 0.222373
351 3 0.00213549 0.485765 0.722373
352 3 0.502136 0.485765 0.722373
353 3 0.259573 0.230093 0.00575754
354 3 0.759573 0.230093 0.00575752
355 3 0.240427 0.769907 0.505758
356 3 0.740427 0.769907 0.505758
357 3 0.00957286 0.769907 0.00575754
358 3 0.509573 0.769907 0.00575754
359 3 0.490427 0.230093 0.505758
360 3 0.990427 0.230093 0.505758
361 3 0.259573 0.730093 0.00575753
362 3 0.759573 0.730093 0.00575751
363 3 0.240427 0.269907 0.505758
364 3 0.740427 0.269907 0.505758
365 3 0.00957289 0.269907 0.00575752
366 3 0.509573 0.269907 0.00575752
367 3 0.490427 0.730093 0.505758
368 3 0.990427 0.730093 0.505758
369 3 0.207893 0.367947 0.0130318
370 3 0.707893 0.367947 0.0130318
371 3 0.292107 0.632053 0.513032
372 3 0.792107 0.632053 0.513032
373 3 0.457893 0.632053 0.0130318
374 3 0.957893 0.632053 0.0130318
375 3 0.0421074 0.367947 0.513032
376 3 0.542107 0.367947 0.513032
377 3 0.207893 0.867947 0.0130318
378 3 0.707893 0.867947 0.0130318
379 3 0.292107 0.132053 0.513032
380 3 0.792107 0.132053 0.513032
381 3 0.457893 0.132053 0.0130318
382 3 0.957893 0.132053 0.0130318
383 3 0.0421074 0.867947 0.513032
384 3 0.542107 0.867947 0.513032
385 3 0.0581457 0.274892 0.135177
386 3 0.558146 0.274892 0.135177
387 3 0.441854 0.725108 0.635177
388 3 0.941854 0.725108 0.635177
389 3 0.308146 0.725108 0.135177
390 3 0.808146 0.725108 0.135177
391 3 0.191854 0.274892 0.635177
392 3 0.691854 0.274892 0.635177
393 3 0.0581458 0.774892 0.135177
394 3 0.558146 0.774892 0.135177
395 3 0.441854 0.225108 0.635177
396 3 0.941854 0.225108 0.635177
397 3 0.308146 0.225108 0.135177
398 3 0.808146 0.225108 0.135177
399 3 0.191854 0.774892 0.635177
400 3 0.691854 0.774892 0.635177
401 3 0.0451956 0.0918072 0.111015
402 3 0.545196 0.0918072 0.111015
403 3 0.454804 0.908193 0.611015
404 3 0.954804 0.908193 0.611015
405 3 0.295196 0.908193 0.111015
406 3 0.795196 0.908193 0.111015
407 3 0.204804 0.0918072 0.611015
408 3 0.704804 0.0918072 0.611015
409 3 0.0451956 0.591807 0.111015
410 3 0.545196 0.591807 0.111015
411 3 0.454804 0.408193 0.611015
412 3 0.954804 0.408193 0.611015
413 3 0.295196 0.408193 0.111015
414 3 0.795196 0.408193 0.111015
415 3 0.204804 0.591807 0.611015
416 3 0.704804 0.591807 0.611015
417 3 0.316456 0.384789 0.804768
418 3 0.816456 0.384789 0.804768
419 3 0.183544 0.615212 0.304768
420 3 0.683544 0.615212 0.304768
421 3 0.0664557 0.615212 0.804768
422 3 0.566456 0.615211 0.804768
423 3 0.433544 0.384789 0.304768
424 3 0.933544 0.384789 0.304768
425 3 0.316456 0.884788 0.804768
426 3 0.816456 0.884788 0.804768
427 3 0.183544 0.115212 0.304768
428 3 0.683544 0.115211 0.304768
429 3 0.0664557 0.115212 0.804768
430 3 0.566456 0.115211 0.804768
431 3 0.433544 0.884788 0.304768
432 3 0.933544 0.884788 0.304768
433 3 0.372263 0.261648 0.780075
434 3 0.872263 0.261648 0.780075
435 3 0.127737 0.738352 0.280075
436 3 0.627737 0.738352 0.280075
437 3 0.122263 0.738352 0.780075
438 3 0.622263 0.738352 0.780075
439 3 0.377737 0.261648 0.280075
440 3 0.877737 0.261648 0.280075
441 3 0.372263 0.761648 0.780075
442 3 0.872263 0.761648 0.780075
443 3 0.127737 0.238352 0.280075
444 3 0.627737 0.238352 0.280075
445 3 0.122263 0.238352 0.780075
446 3 0.622263 0.238352 0.780075
447 3 0.377737 0.761648 0.280075
448 3 0.877737 0.761648 0.280075
449 3 0.378584 0.0141882 0.997531
450 3 0.878584 0.0141882 0.997531
451 3 0.121416 0.985812 0.497531
452 3 0.621416 0.985812 0.497531
453 3 0.128584 0.985812 0.997531
454 3 0.628584 0.985812 0.997531
455 3 0.371416 0.0141882 0.497531
456 3 0.871416 0.0141882 0.497531
457 3 0.378584 0.514188 0.997531
458 3 0.878584 0.514188 0.997531
459 3 0.121416 0.485812 0.497531
460 3 0.621416 0.485812 0.497531
461 3 0.128584 0.485812 0.997531
462 3 0.628584 0.485812 0.997531
463 3 0.371416 0.514188 0.497531
464 3 0.871416 0.514188 0.497531
465 3 0.33319 0.868203 0.972803
466 3 0.83319 0.868203 0.972803
467 3 0.16681 0.131797 0.472803
468 3 0.66681 0.131797 0.472803
469 3 0.08319 0.131797 0.972803
470 3 0.58319 0.131797 0.972803
471 3 0.41681 0.868203 0.472803
472 3 0.91681 0.868203 0.472803
473 3 0.33319 0.368203 0.972803
474 3 0.83319 0.368203 0.972803
475 3 0.16681 0.631797 0.472803
476 3 0.66681 0.631797 0.472803
477 3 0.0831901 0.631797 0.972803
478 3 0.58319 0.631797 0.972803
479 3 0.41681 0.368203 0.472803
480 3 0.91681 0.368203 0.472803
481 3 0.180497 0.982997 0.858794
482 3 0.680497 0.982997 0.858794
483 3 0.319503 0.017003 0.358794
484 3 0.819503 0.017003 0.358794
485 3 0.430497 0.017003 0.858794
486 3 0.930497 0.017003 0.858794
487 3 0.0695035 0.982997 0.358794
488 3 0.569503 0.982997 0.358794
489 3 0.180497 0.482997 0.858794
490 3 0.680497 0.482997 0.858794
491 3 0.319503 0.517003 0.358794
492 3 0.819503 0.517003 0.358794
493 3 0.430497 0.517003 0.858794
494 3 0.930497 0.517003 0.858794
495 3 0.0695035 0.482997 0.358794
496 3 0.569503 0.482997 0.358794
497 3 0.169604 0.158105 0.901193
498 3 0.669604 0.158105 0.901193
499 3 0.330396 0.841895 0.401193
500 3 0.830396 0.841895 0.401193
501 3 0.419604 0.841895 0.901193
502 3 0.919604 0.841895 0.901193
503 3 0.0803965 0.158105 0.401193
504 3 0.580396 0.158105 0.401193
505 3 0.169604 0.658105 0.901193
506 3 0.669604 0.658105 0.901193
507 3 0.330396 0.341895 0.401193
508 3 0.830396 0.341895 0.401193
509 3 0.419604 0.341895 0.901193
510 3 0.919604 0.341895 0.901193
511 3 0.0803965 0.658105 0.401193
512 3 0.580396 0.658105 0.401193
513 4 0.136614 0.969377 0.247928
514 4 0.636614 0.969377 0.247928
515 4 0.363386 0.0306233 0.747928
516 4 0.863386 0.0306233 0.747928
517 4 0.386614 0.0306233 0.247928
518 4 0.886614 0.0306233 0.247928
519 4 0.113386 0.969377 0.747928
520 4 0.613386 0.969377 0.747928
521 4 0.136614 0.469377 0.247928
522 4 0.636614 0.469377 0.247928
523 4 0.363386 0.530623 0.747928
524 4 0.863386 0.530623 0.747928
525 4 0.386614 0.530623 0.247928
526 4 0.886614 0.530623 0.247928
527 4 0.113386 0.469377 0.747928
528 4 0.613386 0.469377 0.747928
529 4 0.103749 0.919459 0.181518
530 4 0.603749 0.919459 0.181518
531 4 0.396251 0.0805412 0.681518
532 4 0.896251 0.0805411 0.681518
533 4 0.353749 0.0805412 0.181518
534 4 0.853749 0.0805411 0.181518
535 4 0.146251 0.919459 0.681518
536 4 0.646251 0.919459 0.681518
537 4 0.103749 0.419459 0.181518
538 4 0.603749 0.419459 0.181518
539 4 0.396251 0.580541 0.681518
540 4 0.896251 0.580541 0.681518
541 4 0.353749 0.580541 0.181518
542 4 0.853749 0.580541 0.181518
543 4 0.146251 0.419459 0.681518
544 4 0.646251 0.419459 0.681518
545 4 0.0882918 0.0481255 0.230854
546 4 0.588292 0.0481255 0.230854
547 4 0.411708 0.951875 0.730854
548 4 0.911708 0.951875 0.730854
549 4 0.338292 0.951875 0.230854
550 4 0.838292 0.951875 0.230854
551 4 0.161708 0.0481255 0.730854
552 4 0.661708 0.0481255 0.730854
553 4 0.0882919 0.548125 0.230854
554 4 0.588292 0.548125 0.230854
555 4 0.411708 0.451874 0.730854
556 4 0.911708 0.451874 0.730854
557 4 0.338292 0.451875 0.230854
558 4 0.838292 0.451875 0.230854
559 4 0.161708 0.548125 0.730854
560 4 0.661708 0.548126 0.730854
561 4 0.251858 0.099373 0.107895
562 4 0.751858 0.099373 0.107895
563 4 0.248142 0.900627 0.607895
564 4 0.748142 0.900627 0.607895
565 4 0.501858 0.900627 0.107895
566 4 0.00185837 0.900627 0.107895
567 4 0.998142 0.099373 0.607895
568 4 0.498142 0.099373 0.607895
569 4 0.251858 0.599373 0.107895
570 4 0.751858 0.599373 0.107895
571 4 0.248142 0.400627 0.607895
572 4 0.748142 0.400627 0.607895
573 4 0.501858 0.400627 0.107895
574 4 0.00185834 0.400627 0.107895
575 4 0.998142 0.599373 0.607895
576 4 0.498142 0.599373 0.607895
577 4 0.132839 0.29106 0.0487318
578 4 0.632839 0.29106 0.0487318
579 4 0.367161 0.70894 0.548732
580 4 0.867161 0.70894 0.548732
581 4 0.382839 0.70894 0.0487318
582 4 0.882839 0.70894 0.0487318
583 4 0.117161 0.29106 0.548732
584 4 0.617161 0.29106 0.548732
585 4 0.132839 0.791059 0.048732
586 4 0.632839 0.791059 0.048732
587 4 0.367161 0.208941 0.548732
588 4 0.867161 0.208941 0.548732
589 4 0.382839 0.208941 0.048732
590 4 0.882839 0.208941 0.048732
591 4 0.117161 0.791059 0.548732
592 4 0.617161 0.791059 0.548732
593 4 0.248235 0.2833 0.752929
594 4 0.748235 0.2833 0.752929
595 4 0.251765 0.7167 0.252929
596 4 0.751765 0.7167 0.252929
597 4 0.498235 0.7167 0.752929
598 4 0.998235 0.7167 0.752929
599 4 0.00176546 0.2833 0.252929
600 4 0.501765 0.2833 0.252929
601 4 0.248235 0.7833 0.752929
602 4 0.748235 0.7833 0.752929
603 4 0.251765 0.2167 0.252929
604 4 0.751765 0.2167 0.252929
605 4 0.498235 0.2167 0.752929
606 4 0.998235 0.2167 0.752929
607 4 0.00176546 0.7833 0.252929
608 4 0.501765 0.7833 0.252929
609 4 0.202743 0.198227 0.781664
610 4 0.702743 0.198227 0.781664
611 4 0.297257 0.801773 0.281664
612 4 0.797257 0.801773 0.281664
613 4 0.452743 0.801773 0.781664
614 4 0.952743 0.801773 0.781664
615 4 0.0472571 0.198227 0.281664
616 4 0.547257 0.198227 0.281664
617 4 0.202743 0.698227 0.781664
618 4 0.702743 0.698227 0.781664
619 4 0.297257 0.301773 0.281664
620 4 0.797257 0.301773 0.281664
621 4 0.452743 0.301773 0.781664
622 4 0.952743 0.301773 0.781664
623 4 0.0472571 0.698227 0.281664
624 4 0.547257 0.698227 0.281664
625 4 0.214851 0.320705 0.826678
626 4 0.714851 0.320705 0.826678
627 4 0.285149 0.679295 0.326678
628 4 0.785149 0.679295 0.326678
629 4 0.464851 0.679295 0.826678
630 4 0.964851 0.679295 0.826678
631 4 0.0351493 0.320705 0.326678
632 4 0.535149 0.320705 0.326678
633 4 0.214851 0.820705 0.826678
634 4 0.714851 0.820705 0.826678
635 4 0.285149 0.179295 0.326678
636 4 0.785149 0.179295 0.326678
637 4 0.464851 0.179295 0.826678
638 4 0.964851 0.179295 0.826678
639 4 0.0351493 0.820705 0.326678
640 4 0.535149 0.820705 0.326678
641 4 0.373658 0.145954 0.893686
642 4 0.873658 0.145954 0.893686
643 4 0.126342 0.854046 0.393686
644 4 0.626342 0.854046 0.393686
645 4 0.123658 0.854046 0.893686
646 4 0.623658 0.854046 0.893686
647 4 0.376342 0.145954 0.393686
648 4 0.876342 0.145954 0.393686
649 4 0.373658 0.645954 0.893686
650 4 0.873658 0.645954 0.893686
651 4 0.126342 0.354046 0.393686
652 4 0.626342 0.354046 0.393686
653 4 0.123658 0.354046 0.893686
654 4 0.623658 0.354046 0.893686
655 4 0.376342 0.645954 0.393686
656 4 0.876342 0.645954 0.393686
657 4 0.253915 0.952319 0.945654
658 4 0.753915 0.952319 0.945654
659 4 0.246085 0.0476812 0.445654
660 4 0.746085 0.0476812 0.445654
661 4 0.00391507 0.0476812 0.945654
662 4 0.503915 0.0476812 0.945654
663 4 0.496085 0.952319 0.445654
664 4 0.996085 0.952319 0.445654
665 4 0.253915 0.452319 0.945654
666 4 0.753915 0.452319 0.945654
667 4 0.246085 0.547681 0.445654
668 4 0.746085 0.547681 0.445654
669 4 0.00391507 0.547681 0.945654
670 4 0.503915 0.547681 0.945654
671 4 0.496085 0.452319 0.445654
672 4 0.996085 0.452319 0.445654
ITEM: TIMESTEP
1000
ITEM: NUMBER OF ATOMS
672
ITEM: BOX BOUNDS xy xz yz pp pp pp
-5.6429027390414022e-01 3.0634454782923648e+01 -1.2576034430916280e-02
1.0818796083614386e-01 1.1990315137575941e+01 1.0074019245039693e-01
-9.7927722988121779e-01 2.0996277428281140e+01 -5.5497183887981347e-02
ITEM: ATOMS id type xs ys zs
1 1 0.149145 0.0830909 0.171667
2 1 0.628526 0.0989951 0.169181
3 1 0.348699 0.9293 0.67467
4 1 0.864197 0.931672 0.652606
5 1 0.403585 0.902058 0.175735
6 1 0.89688 0.93554 0.161262
7 1 0.120199 0.0339917 0.644352
8 1 0.602138 0.0967052 0.649635
9 1 0.155894 0.568379 0.155249
10 1 0.647669 0.562199 0.150303
11 1 0.33399 0.45427 0.663034
12 1 0.843839 0.430757 0.648424
13 1 0.395876 0.39076 0.165685
14 1 0.898997 0.423665 0.15498
15 1 0.111952 0.552687 0.665149
16 1 0.595736 0.594337 0.65621
17 1 0.194557 0.0741628 0.162659
18 1 0.667339 0.0356293 0.16111
19 1 0.30419 0.955024 0.655249
20 1 0.82105 0.959759 0.638448
21 1 0.449187 0.924559 0.164217
22 1 0.940983 0.966539 0.148686
23 1 0.0741947 0.0150993 0.646379
24 1 0.556514 0.097405 0.645892
25 1 0.201767 0.560298 0.146574
26 1 0.693391 0.54455 0.1421
27 1 0.288616 0.462485 0.655923
28 1 0.79778 0.445543 0.645169
29 1 0.440306 0.418778 0.150933
30 1 0.942946 0.455486 0.139982
31 1 0.0671742 0.523724 0.661351
32 1 0.550291 0.571895 0.649316
33 1 0.213031 0.139983 0.114069
34 1 0.695059 0.0675067 0.110634
35 1 0.289902 0.909006 0.59915
36 1 0.802637 0.896667 0.588961
37 1 0.470539 0.858027 0.119056
38 1 0.961724 0.914574 0.0988824
39 1 0.0501465 0.0887942 0.611174
40 1 0.539744 0.173523 0.603066
41 1 0.223256 0.631399 0.10356
42 1 0.715625 0.604181 0.0968719
43 1 0.272634 0.404317 0.602133
44 1 0.776248 0.380302 0.599308
45 1 0.462571 0.355154 0.107608
46 1 0.964095 0.381465 0.0970427
47 1 0.043883 0.580881 0.612593
48 1 0.529893 0.643408 0.605704
49 1 0.19006 0.224624 0.0775814
50 1 0.689101 0.167771 0.0747658
51 1 0.31119 0.811633 0.575002
52 1 0.819618 0.798347 0.558412
53 1 0.448354 0.771777 0.083742
54 1 0.943174 0.839912 0.056123
55 1 0.0674517 0.183175 0.577735
56 1 0.563836 0.246762 0.56199
57 1 0.201572 0.726896 0.076148
58 1 0.698524 0.683254 0.0557898
59 1 0.29418 0.320985 0.56725
60 1 0.798211 0.300224 0.561179
61 1 0.443171 0.262412 0.0742807
62 1 0.942668 0.298699 0.0621601
63 1 0.0615303 0.668818 0.575995
64 1 0.548407 0.74101 0.577203
65 1 0.14673 0.233568 0.0929737
66 1 0.649164 0.225192 0.0808934
67 1 0.35086 0.775814 0.598546
68 1 0.861646 0.777608 0.579629
69 1 0.406763 0.740653 0.101417
70 1 0.897173 0.818618 0.0654867
71 1 0.111717 0.20821 0.587355
72 1 0.608998 0.237898 0.563408
73 1 0.158875 0.745388 0.100108
74 1 0.653986 0.707932 0.0701551
75 1 0.337279 0.300113 0.585941
76 1 0.84085 0.270929 0.579665
77 1 0.401599 0.226655 0.096466
78 1 0.898686 0.277952 0.0756355
79 1 0.107245 0.685089 0.583014
80 1 0.590325 0.767578 0.599582
81 1 0.124053 0.158417 0.135029
82 1 0.616994 0.183804 0.124366
83 1 0.372102 0.843668 0.645137
84 1 0.886333 0.837902 0.624166
85 1 0.382773 0.814484 0.142612
86 1 0.87684 0.854705 0.120197
87 1 0.141126 0.126158 0.614402
88 1 0.627887 0.163492 0.609582
89 1 0.132547 0.66349 0.128954
90 1 0.629619 0.656188 0.11757
91 1 0.359428 0.372522 0.627432
92 1 0.867661 0.344061 0.617472
93 1 0.375115 0.297789 0.13621
94 1 0.875008 0.339008 0.121219
95 1 0.134496 0.633938 0.627876
96 1 0.618073 0.689742 0.630366
97 1 0.124036 0.0053664 0.216385
98 1 0.601209 0.0747907 0.225582
99 1 0.368191 0.00184078 0.726481
100 1 0.885561 0.992732 0.708561
101 1 0.379041 0.970865 0.225203
102 1 0.875124 0.991264 0.218309
103 1 0.149819 0.950463 0.677617
104 1 0.626586 0.0244021 0.6979
105 1 0.134896 0.476417 0.197746
106 1 0.620478 0.494519 0.196572
107 1 0.356395 0.521032 0.713143
108 1 0.870627 0.506347 0.692363
109 1 0.37172 0.46147 0.213558
110 1 0.87479 0.491826 0.205324
111 1 0.139799 0.494241 0.71521
112 1 0.624126 0.505052 0.688917
113 1 0.259234 0.173644 0.840386
114 1 0.768742 0.184793 0.835409
115 1 0.234003 0.813497 0.336314
116 1 0.717578 0.800161 0.33417
117 1 0.0148074 0.818597 0.845059
118 1 0.521897 0.862615 0.845044
119 1 0.47247 0.144244 0.359183
120 1 0.970861 0.185399 0.340408
121 1 0.272915 0.67424 0.849971
122 1 0.785099 0.654872 0.843033
123 1 0.230666 0.337745 0.339598
124 1 0.732199 0.346644 0.342629
125 1 0.0333042 0.275857 0.832907
126 1 0.526551 0.372875 0.831047
127 1 0.481715 0.639642 0.343616
128 1 0.974833 0.665097 0.334089
129 1 0.303779 0.198254 0.847355
130 1 0.81468 0.203871 0.839499
131 1 0.187447 0.799717 0.337715
132 1 0.673175 0.783961 0.340587
133 1 0.0584451 0.784423 0.857667
134 1 0.568674 0.859722 0.850123
135 1 0.428693 0.177695 0.368613
136 1 0.924294 0.190913 0.343294
137 1 0.317985 0.691165 0.860037
138 1 0.831464 0.682161 0.847862
139 1 0.185329 0.317797 0.344595
140 1 0.686956 0.335121 0.346279
141 1 0.0772157 0.264954 0.850023
142 1 0.570819 0.349878 0.844907
143 1 0.439539 0.67893 0.35494
144 1 0.929047 0.683475 0.342091
145 1 0.328412 0.12622 0.886887
146 1 0.836904 0.138132 0.882643
147 1 0.167639 0.871985 0.379857
148 1 0.650099 0.85904 0.380419
149 1 0.0818186 0.846913 0.902355
150 1 0.587421 0.941108 0.892951
151 1 0.4084 0.109502 0.414991
152 1 0.903278 0.115323 0.384922
153 1 0.34164 0.62082 0.90078
154 1 0.854936 0.617293 0.890789
155 1 0.162357 0.391962 0.384198
156 1 0.665183 0.409071 0.386584
157 1 0.0961286 0.352167 0.886223
158 1 0.587839 0.421042 0.891977
159 1 0.418256 0.624921 0.405742
160 1 0.908421 0.612132 0.384542
161 1 0.307961 0.0441598 0.926785
162 1 0.81643 0.0515897 0.918678
163 1 0.188383 0.968383 0.409869
164 1 0.67186 0.934628 0.42034
165 1 0.0601596 0.93018 0.939263
166 1 0.562315 0.00745117 0.934692
167 1 0.42839 0.0256115 0.450555
168 1 0.929017 0.0456104 0.422742
169 1 0.319142 0.536856 0.93669
170 1 0.834561 0.530256 0.928013
171 1 0.184255 0.478029 0.417954
172 1 0.685761 0.482565 0.427664
173 1 0.0693836 0.424308 0.923702
174 1 0.562765 0.499381 0.926303
175 1 0.439002 0.538925 0.439596
176 1 0.930445 0.537226 0.42436
177 1 0.26331 0.0214367 0.918199
178 1 0.772064 0.0292171 0.907528
179 1 0.233209 0.98128 0.398423
180 1 0.717553 0.945076 0.414484
181 1 0.0179388 0.962666 0.919253
182 1 0.517246 0.00974552 0.925545
183 1 0.472589 0.997831 0.438063
184 1 0.971068 0.0167786 0.400502
185 1 0.274434 0.521033 0.92679
186 1 0.791433 0.501701 0.910958
187 1 0.228765 0.498715 0.409922
188 1 0.72942 0.513408 0.407393
189 1 0.0258335 0.435918 0.905732
190 1 0.517777 0.51423 0.909185
191 1 0.481663 0.499295 0.42109
192 1 0.976367 0.526131 0.416575
193 1 0.237777 0.0856541 0.875236
194 1 0.74667 0.0960353 0.867797
195 1 0.258177 0.90304 0.362596
196 1 0.741465 0.88436 0.369172
197 1 0.495085 0.935036 0.883417
198 1 0.993994 0.916445 0.87046
199 1 0.995478 0.0908558 0.359831
200 1 0.493835 0.0525137 0.388774
201 1 0.249649 0.586793 0.883397
202 1 0.762681 0.569665 0.875383
203 1 0.253916 0.422219 0.373936
204 1 0.755586 0.440114 0.372217
205 1 0.498488 0.453054 0.860128
206 1 0.00828315 0.369013 0.856875
207 1 0.000438362 0.598608 0.375573
208 1 0.503848 0.54914 0.374559
209 1 0.233504 0.240126 0.791734
210 1 0.742327 0.241065 0.784102
211 1 0.254992 0.723475 0.295921
212 1 0.742 0.719506 0.291389
213 1 0.494172 0.801816 0.796631
214 1 0.98704 0.766514 0.79464
215 1 0.997808 0.282839 0.312826
216 1 0.498968 0.221354 0.314352
217 1 0.248447 0.758022 0.80855
218 1 0.757241 0.721875 0.797032
219 1 0.257741 0.270807 0.292104
220 1 0.760418 0.274786 0.300083
221 1 0.505319 0.295785 0.781436
222 1 0.0159818 0.204015 0.779179
223 1 0.00404812 0.727444 0.288017
224 1 0.510024 0.691582 0.290201