LAMMPS data file via write_data, version 15 Apr 2020, timestep = 80000

672 atoms
4 atom types

-6.6479839867178292e-01 3.0646798749672278e+01 xlo xhi
1.8014948704545919e-01 1.1973850795254602e+01 ylo yhi
-7.0747014676488718e-01 2.0724470345165415e+01 zlo zhi
-3.5146896077566597e-01 -8.6788387604893324e-03 1.6441420678945967e-01 xy xz yz

Masses

1 12.0107
2 14.0067
3 15.9994
4 1.00794

Atoms # full

1 1 1 2.6947653217417794e-02 3.7302113758019666e+00 1.5291031419647172e+00 2.4421897921159892e+00 0 0 0
2 1 1 2.5925799166904528e-02 1.9192469778975166e+01 9.8463406909851348e-01 2.4927388658675200e+00 0 0 0
3 1 1 3.1265469830644155e-02 1.0436303721879682e+01 1.0602140361893397e+01 1.3196836360636087e+01 0 0 0
4 1 1 1.6867330494733067e-02 2.5636080519451752e+01 1.0865612012348816e+01 1.3385697811402101e+01 0 0 0
5 1 1 3.2260475885477632e-02 1.1292374173581825e+01 1.0806120196561459e+01 2.6753590502564197e+00 0 0 0
6 1 1 2.5612614559630265e-02 2.6859816669680278e+01 1.0731188178287454e+01 2.6511449932727245e+00 0 0 0
7 1 1 2.9556733623696978e-02 3.1113669689192474e+00 1.8198339968270085e+00 1.3287930111044977e+01 0 0 0
8 1 1 2.0082786210565411e-02 1.8190529435646269e+01 1.3975534890360668e+00 1.3466784199733297e+01 0 0 0
9 1 1 1.9666631289226237e-02 3.2437659963504251e+00 6.9674948997691954e+00 2.6383888006340563e+00 0 0 0
10 1 1 3.0868052483961499e-02 1.9470603488153408e+01 7.3567792761839010e+00 2.9619324430509866e+00 0 0 0
11 1 1 1.8106117268753601e-02 1.0603613059493162e+01 5.5662824865375287e+00 1.3413700662054190e+01 0 0 0
12 1 1 2.0818395896525024e-02 2.6188684374241813e+01 4.8905677323154571e+00 1.3509453924160391e+01 0 0 0
13 1 1 3.3087677459130646e-02 1.1586440197160622e+01 5.0842666719040777e+00 2.4005038519700528e+00 0 0 0
14 1 1 2.9832771038497855e-02 2.6795374654246185e+01 5.0686856384160643e+00 2.7173925905636884e+00 0 0 0
15 1 1 1.7153818886834461e-02 2.4257186774428181e+00 7.5230568012920429e+00 1.3846099014148672e+01 0 0 0
16 1 1 3.0897206603071010e-02 1.7926120419067683e+01 7.5920518767706877e+00 1.3210007418977249e+01 0 0 0
17 1 1 3.1150039557312815e-02 5.1246421361624925e+00 1.2773121397931277e+00 2.2780012986901439e+00 0 0 0
18 1 1 3.1245976231643165e-02 2.0533751836375014e+01 5.7152394266971873e-01 2.2118088975693868e+00 0 0 0
19 1 1 3.0480930181292963e-02 9.1049708562952887e+00 1.1043600022475744e+01 1.3108702746273590e+01 0 0 0
20 1 1 2.6706893364609827e-02 2.4226818430939744e+01 1.1129803442342087e+01 1.3187959006694248e+01 0 0 0
21 1 1 3.0074074182182733e-02 1.2696306512106814e+01 1.1104102935062080e+01 2.4162661609188736e+00 0 0 0
22 1 1 3.0381610673833489e-02 2.8250018490369776e+01 1.1111907281128005e+01 2.3714857562440175e+00 0 0 0
23 1 1 3.1014928308004140e-02 1.7767231336291558e+00 1.3051582827846466e+00 1.3133636427591743e+01 0 0 0
24 1 1 2.5637968356993689e-02 1.6801526732136352e+01 9.8983927434017260e-01 1.3342915078961031e+01 0 0 0
25 1 1 3.1632369261334441e-02 4.6154633115662334e+00 6.5835432339059698e+00 2.4307985792402720e+00 0 0 0
26 1 1 3.4264617316642640e-02 2.0734515628415707e+01 6.7691625314510722e+00 2.6739198124261767e+00 0 0 0
27 1 1 2.2446739332712653e-02 9.2184970832054809e+00 5.9138551482187367e+00 1.3211263898552277e+01 0 0 0
28 1 1 2.2710328263100099e-02 2.4893497187410716e+01 5.3400528818857467e+00 1.3110137230279198e+01 0 0 0
29 1 1 3.5724846418729736e-02 1.3015549905739087e+01 5.1287944440902535e+00 2.3910158261048666e+00 0 0 0
30 1 1 3.4409209949966435e-02 2.8145416930758309e+01 5.4286314898450545e+00 2.3299311173944179e+00 0 0 0
31 1 1 1.7842471998158967e-02 1.1084839286822252e+00 7.0217746585485150e+00 1.3843429059484526e+01 0 0 0
32 1 1 3.6229851237784175e-02 1.6574755163821482e+01 7.0843372177776933e+00 1.3139249261606563e+01 0 0 0
33 1 1 1.0115648855470942e-02 5.8001655600017417e+00 2.0762502979165749e+00 1.2844490968771156e+00 0 0 0
34 1 1 1.8877585276334870e-02 2.1276093085983458e+01 1.2933999308303119e+00 1.2112344532708850e+00 0 0 0
35 1 1 8.2624323506125946e-03 8.3433747011741950e+00 1.0333784133543094e+01 1.2136869065268939e+01 0 0 0
36 1 1 1.2661523414387060e-02 2.3650292921465972e+01 1.0306374813778813e+01 1.2160211477189106e+01 0 0 0
37 1 1 6.1168989522311784e-03 1.3454654484097704e+01 1.0262894052402135e+01 1.5673049486125414e+00 0 0 0
38 1 1 6.5659965016996030e-03 2.8939349581651268e+01 1.0363078176446137e+01 1.3804859570442916e+00 0 0 0
39 1 1 2.1884384796880946e-02 9.7749923930392491e-01 2.0094074340432071e+00 1.2179685539222501e+01 0 0 0
40 1 1 9.7213175944118879e-03 1.6104518548797159e+01 1.5851960235319886e+00 1.2253297921993715e+01 0 0 0
41 1 1 2.0315061999045845e-02 5.3670316866901029e+00 7.3660172288012511e+00 1.5047324983002470e+00 0 0 0
42 1 1 1.8557190619158229e-02 2.1513478662345658e+01 7.2191595879536150e+00 1.5509614300824031e+00 0 0 0
43 1 1 1.2786765598614414e-02 8.6094585606297116e+00 5.2774786727197194e+00 1.2125949950484609e+01 0 0 0
44 1 1 1.4712968119035229e-02 2.4314642774220591e+01 4.5985149735673199e+00 1.2048860060186717e+01 0 0 0
45 1 1 2.0918053048083519e-02 1.3695583338281081e+01 4.2682094060517022e+00 1.4426663945344451e+00 0 0 0
46 1 1 2.4068773678520797e-02 2.8736712233219308e+01 4.6714968170853197e+00 1.2637038454949978e+00 0 0 0
47 1 1 -2.1216549994151346e-03 2.9636749703092236e-01 7.5688021328734161e+00 1.2781389019807325e+01 0 0 0
48 1 1 1.7527735207002439e-02 1.5812755106658102e+01 7.6608173862724831e+00 1.2045690141646730e+01 0 0 0
49 1 1 3.5347921396262777e-02 5.1332111946860284e+00 3.0648019665549535e+00 5.0570511501579918e-01 0 0 0
50 1 1 4.3775367884670888e-02 2.0706285493950411e+01 2.4480980727800854e+00 6.3555256218611933e-01 0 0 0
51 1 1 4.1026422606525274e-02 8.8004005108319809e+00 9.2062126373708111e+00 1.1359399448035898e+01 0 0 0
52 1 1 3.9177951425708978e-02 2.4317813570956606e+01 9.2597779243984348e+00 1.1427168141555180e+01 0 0 0
53 1 1 4.2643420707573584e-02 1.2845546187443841e+01 9.1581711656683673e+00 8.9020512706603383e-01 0 0 0
54 1 1 3.7492656658304521e-02 2.8390221512189576e+01 9.2643788083664624e+00 6.7719400398662977e-01 0 0 0
55 1 1 4.0706397754281962e-02 1.4856159862223823e+00 3.0248307679491959e+00 1.1328317845876699e+01 0 0 0
56 1 1 3.9733745297570774e-02 1.6677755464613195e+01 2.6390755847786331e+00 1.1462336268851415e+01 0 0 0
57 1 1 4.6747574354726734e-02 4.9192706605059522e+00 8.6367297127248648e+00 9.7896826635780299e-01 0 0 0
58 1 1 4.0690608705745063e-02 2.1002805763755827e+01 8.2652833400913757e+00 6.8666068241196987e-01 0 0 0
59 1 1 4.1930080157960681e-02 9.2431008757620283e+00 4.2184089646296270e+00 1.1349589959389210e+01 0 0 0
60 1 1 4.7640724659355843e-02 2.4838238984618151e+01 3.3886594872242921e+00 1.1512688016447830e+01 0 0 0
61 1 1 4.1248243513807195e-02 1.3049774763050214e+01 3.4394437503706019e+00 5.2547302969961729e-01 0 0 0
62 1 1 4.0761114118824403e-02 2.8076543705672851e+01 3.5513436505189251e+00 6.9248438021823921e-01 0 0 0
63 1 1 3.6899880041419371e-02 7.2241264531613569e-01 8.5419436605770507e+00 1.1847969108220216e+01 0 0 0
64 1 1 3.8840957439072399e-02 1.6264177842999647e+01 8.8113420518181300e+00 1.1380904306004860e+01 0 0 0
65 1 1 1.0499337363121902e-02 3.7290119215857933e+00 3.2774030945283763e+00 7.3985216232298567e-01 0 0 0
66 1 1 1.4475542744078636e-02 1.9389133672890100e+01 2.8011490606739362e+00 1.0078284487085671e+00 0 0 0
67 1 1 6.2275301438364343e-03 1.0183818962304370e+01 8.8571026283779659e+00 1.1519282568910270e+01 0 0 0
68 1 1 8.9803631082434263e-03 2.5709880170895627e+01 9.2232490054860286e+00 1.1654915146909804e+01 0 0 0
69 1 1 3.3216493873950426e-03 1.1505234829864651e+01 8.7988806717184076e+00 1.3034113343419604e+00 0 0 0
70 1 1 1.4903555009245520e-02 2.7027090131300632e+01 8.9665068073371579e+00 9.6100025338571582e-01 0 0 0
71 1 1 1.4032845703849713e-02 2.7531527862669942e+00 3.6163635790798638e+00 1.1702357195860541e+01 0 0 0
72 1 1 1.9922963422077597e-02 1.8041570125363261e+01 3.0375035274657338e+00 1.1695747626357315e+01 0 0 0
73 1 1 1.5658238600564256e-02 3.5607944339434043e+00 8.9294076700111802e+00 1.2795977617306575e+00 0 0 0
74 1 1 2.3580640989312625e-02 1.9661718040330932e+01 8.6835190263635447e+00 9.6943196405959653e-01 0 0 0
75 1 1 2.6734067270964373e-02 1.0579085951551894e+01 3.9061142505253308e+00 1.1675211564570667e+01 0 0 0
76 1 1 2.0774680601803409e-02 2.6176141780797280e+01 3.0522163119358048e+00 1.1811216377479907e+01 0 0 0
77 1 1 1.3899642159555851e-02 1.1662948521329589e+01 3.3346832521898722e+00 7.7413005099845988e-01 0 0 0
78 1 1 1.8973752167058860e-02 2.6743677005952826e+01 3.2514822851913436e+00 1.0676161505673931e+00 0 0 0
79 1 1 1.5286246113158108e-02 2.0621970115232622e+00 9.0446450669926612e+00 1.1970623369120631e+01 0 0 0
80 1 1 1.2661367257465764e-02 1.7563228784819291e+01 9.3556177118572208e+00 1.1654385930305580e+01 0 0 0
81 1 1 4.3878680580078100e-02 2.9955242762360590e+00 2.5015737812489318e+00 1.6782681733696716e+00 0 0 0
82 1 1 3.8619793712327433e-02 1.8575462468892091e+01 2.2080793672477297e+00 2.0254289146559694e+00 0 0 0
83 1 1 3.2670316604613794e-02 1.1023753254801090e+01 9.5432944435969169e+00 1.2412827816298055e+01 0 0 0
84 1 1 3.6126356506510991e-02 2.6455166963183764e+01 9.9634266725457330e+00 1.2639125963059962e+01 0 0 0
85 1 1 3.4646608077464808e-02 1.0657727466879452e+01 9.6268123706339281e+00 2.1330320173108563e+00 0 0 0
86 1 1 3.9006910106030947e-02 2.6239897132165762e+01 9.6572935275264662e+00 1.9170164990770817e+00 0 0 0
87 1 1 3.5356071501368193e-02 3.6368377741072413e+00 2.9656526026607120e+00 1.2600756356978927e+01 0 0 0
88 1 1 3.7934020098199898e-02 1.8810778227398607e+01 2.5244220327224043e+00 1.2776873097561317e+01 0 0 0
89 1 1 3.7561011883257993e-02 2.6763321565230114e+00 8.1315275773840021e+00 2.0556024622629310e+00 0 0 0
90 1 1 3.8992753236691616e-02 1.8797058534825965e+01 8.1913193589947895e+00 1.9795547368194946e+00 0 0 0
91 1 1 3.8608609102771058e-02 1.1326060334095875e+01 4.5539414428133478e+00 1.2737824202452922e+01 0 0 0
92 1 1 3.5298034636548611e-02 2.6843555576514245e+01 3.8240934849871646e+00 1.2820264502452396e+01 0 0 0
93 1 1 4.6941971978915642e-02 1.0857709419906190e+01 4.0558453123007778e+00 1.7288285689643184e+00 0 0 0
94 1 1 4.3172391581509879e-02 2.6043315128872429e+01 4.0928960092243845e+00 1.9584127429168050e+00 0 0 0
95 1 1 3.5542525724997706e-02 2.9578036474206102e+00 8.5261582745330422e+00 1.2951101502870987e+01 0 0 0
96 1 1 3.7944796754026545e-02 1.8483605285823234e+01 8.7469404513374585e+00 1.2559484594313570e+01 0 0 0
97 1 1 -5.2997008046188690e-02 3.0320392034188819e+00 6.7772955723575490e-01 3.5307870308631450e+00 0 1 0
98 1 1 -6.0550412677608495e-02 1.8497258768364187e+01 2.4835134887398203e-01 3.6393384868837426e+00 0 1 0
99 1 1 -5.7966622627105932e-02 1.1310376071773344e+01 1.1365610806624773e+01 1.4209805336782262e+01 0 -1 0
100 1 1 -5.7425275682662785e-02 2.6397553802821676e+01 1.1587698196078680e+01 1.4517471838167625e+01 0 -1 0
101 1 1 -6.4424914924973889e-02 1.0394139885400190e+01 1.1820679350368913e+01 3.4187526984072774e+00 0 -1 0
102 1 1 -6.0661857191812045e-02 2.6079660947283205e+01 1.1580175665997711e+01 3.6761817237164980e+00 0 -1 0
103 1 1 -7.1391491699218906e-02 3.8841996336556495e+00 1.1585025439654384e+00 1.4434513632136063e+01 0 1 0
104 1 1 -6.1112721252940039e-02 1.9050863625174344e+01 8.6300092462288813e-01 1.4648167079648127e+01 0 1 0
105 1 1 -6.3256647606105637e-02 2.3360105699005511e+00 6.2991306355548851e+00 3.6889810923242008e+00 0 0 0
106 1 1 -5.0366558551903834e-02 1.8603856445137847e+01 6.7601077371949918e+00 4.1092718616269961e+00 0 0 0
107 1 1 -6.3205668049094429e-02 1.1202155932893026e+01 6.1508305582553646e+00 1.4717815607014556e+01 0 0 0
108 1 1 -6.4289862055802088e-02 2.6917229151513098e+01 5.8198043672495894e+00 1.4520583028283374e+01 0 0 0
109 1 1 -5.4267101755105587e-02 1.0825766433486587e+01 5.9608261937553992e+00 3.4287871671315200e+00 0 0 0
110 1 1 -5.2546426495467660e-02 2.6143570507912901e+01 5.8086943486897269e+00 3.9019476897717480e+00 0 0 0
111 1 1 -5.8231121422987212e-02 3.3541856530416587e+00 6.9934055933690038e+00 1.4975331808913376e+01 0 0 0
112 1 1 -4.9904328301227908e-02 1.8896247147406630e+01 6.7698572229019538e+00 1.4100921865033603e+01 0 0 0
113 1 1 2.5574543841079180e-02 7.8944737956312316e+00 1.8086043493401942e+00 1.7344639820865510e+01 0 0 0
114 1 1 2.8922129504632844e-02 2.3252814697180074e+01 1.8227957145434968e+00 1.7205402159098142e+01 0 0 0
115 1 1 2.1326115897825682e-02 6.5015129716354627e+00 1.0559452388972478e+01 6.4351842726480690e+00 0 0 0
116 1 1 3.0628938294705883e-02 2.2020374468721595e+01 1.0421086857089943e+01 6.8225076867812646e+00 0 0 0
117 1 1 3.0231614990848806e-02 -3.3408686314530112e-01 1.0241535413164701e+01 1.7579277652949067e+01 0 0 0
118 1 1 2.4142850720006735e-02 1.5323067489648412e+01 1.0218844434699861e+01 1.7717210521527392e+01 0 0 0
119 1 1 2.2973085561534268e-02 1.4491349753918561e+01 2.3487300324530360e+00 6.5202791168794585e+00 0 0 0
120 1 1 2.2370159722121374e-02 2.9906448972192894e+01 2.1146485805162465e+00 6.5221950504733810e+00 0 0 0
121 1 1 2.4340285044332669e-02 7.8637817290947751e+00 8.2672015377158985e+00 1.7371819324935636e+01 0 0 0
122 1 1 1.6843596772881587e-02 2.3562906826068154e+01 7.8635151113181259e+00 1.7051359849179899e+01 0 0 0
123 1 1 2.4168005623836614e-02 6.3844810575541402e+00 4.4683406559959060e+00 6.4229903185557520e+00 0 0 0
124 1 1 2.7725981824358280e-02 2.2029595672171624e+01 4.1486566209463991e+00 6.5836959915852038e+00 0 0 0
125 1 1 2.8136211380214559e-02 -3.1327833667691907e-01 3.9470649391130106e+00 1.8103516290612202e+01 0 0 0
126 1 1 2.3648221246951394e-02 1.5556092825659496e+01 4.2888031159196620e+00 1.7725141361470705e+01 0 0 0
127 1 1 2.9618208723245838e-02 1.4218687684094416e+01 7.8134299141006274e+00 6.3409078857844268e+00 0 0 0
128 1 1 1.7014776738421521e-02 2.9529663417996446e+01 7.8048518042457662e+00 6.5484655091685342e+00 0 0 0
129 1 1 3.3044172599422925e-02 9.2078172733497556e+00 2.2723676882764896e+00 1.7609391302959839e+01 0 0 0
130 1 1 2.9643094609802245e-02 2.4659422505284173e+01 2.0478456572457340e+00 1.7410230713090918e+01 0 0 0
131 1 1 2.8108197713283583e-02 5.0899657623520174e+00 1.0372757378719658e+01 6.4518637408366821e+00 0 0 0
132 1 1 2.7788777800860618e-02 2.0690531403271127e+01 9.9291621921213888e+00 7.1567041551124833e+00 0 0 0
133 1 1 4.1935335200056732e-02 1.0201615094149816e+00 1.0031472417690509e+01 1.7951779242498368e+01 0 0 0
134 1 1 2.7811617141500301e-02 1.6706213232035555e+01 9.9001291522145110e+00 1.7646179176304326e+01 0 0 0
135 1 1 2.8584691025964289e-02 1.3092684520225523e+01 2.6010915772460956e+00 6.5934704252386584e+00 0 0 0
136 1 1 2.6659536698987851e-02 2.8487622213245999e+01 2.3531414157273614e+00 6.5299329756953570e+00 0 0 0
137 1 1 3.1735082744343168e-02 9.2451009864038394e+00 8.5062971962794691e+00 1.7659020002499442e+01 0 0 0
138 1 1 3.1570173802074455e-02 2.4869507902799405e+01 8.2250415533219119e+00 1.7459921194150777e+01 0 0 0
139 1 1 3.0304277522150532e-02 5.0114924349007666e+00 4.2001251902022068e+00 6.6982286781614651e+00 0 0 0
140 1 1 3.1157281592840123e-02 2.0632156314152066e+01 3.8560186816661171e+00 6.7945024809393013e+00 0 0 0
141 1 1 3.7739683937768997e-02 1.1381087194334112e+00 3.8462470959382831e+00 1.8113384417429199e+01 0 0 0
142 1 1 3.5338684897703497e-02 1.6910155484124530e+01 4.0872783825227446e+00 1.8010085416377184e+01 0 0 0
143 1 1 3.4363593996598010e-02 1.2857038852409861e+01 8.2558546481416144e+00 6.4841311700836197e+00 0 0 0
144 1 1 2.8432409083693662e-02 2.8121142393700008e+01 8.0470664059699928e+00 6.7757063976658403e+00 0 0 0
145 1 1 2.7709581263770273e-02 9.8684431250147089e+00 1.5982189527693693e+00 1.8640667046509673e+01 0 0 0
146 1 1 1.4657032203861262e-02 2.5358552427787490e+01 1.2605545240421632e+00 1.8378865377966680e+01 0 0 0
147 1 1 1.6071059056793027e-02 4.3381479857358007e+00 1.1088654501957365e+01 7.4664925105607303e+00 0 0 0
148 1 1 1.9449251175676571e-02 2.0009824779553345e+01 1.0599241270000064e+01 8.2303424156928564e+00 0 0 0
149 1 1 1.9904316883131386e-02 1.4607278742035819e+00 1.0682460375373072e+01 1.9181577329807091e+01 0 0 0
150 1 1 1.6343531022593345e-02 1.7599240045004912e+01 1.0729951304777170e+01 1.8412706157024370e+01 0 0 0
151 1 1 1.6792580355101460e-02 1.2338607281697954e+01 1.9174703418781329e+00 7.6420556363253382e+00 0 0 0
152 1 1 1.0919299622295577e-02 2.7742819843562440e+01 1.5164082244620192e+00 7.4515374721438885e+00 0 0 0
153 1 1 1.6331101632699116e-03 9.8209201382965219e+00 7.5857202075454540e+00 1.8540134010086600e+01 0 0 0
154 1 1 1.9815432193209651e-02 2.5402853047595684e+01 7.5333388700818409e+00 1.8593784853992982e+01 0 0 0
155 1 1 1.1781792706026490e-02 4.4936614930165693e+00 5.0560439400701309e+00 7.6795003492505725e+00 0 0 0
156 1 1 1.1685667815186374e-02 1.9978446860563864e+01 4.6450282501747733e+00 7.7995519100211279e+00 0 0 0
157 1 1 1.3959361851218322e-02 1.7958721114498326e+00 4.6564358549263813e+00 1.9119724602989365e+01 0 0 0
158 1 1 1.2514917696619006e-02 1.7619598599774097e+01 4.8867513917680405e+00 1.8986475276769919e+01 0 0 0
159 1 1 1.4481968950907899e-02 1.2144600560984522e+01 7.5968140020490509e+00 7.5182345114201716e+00 0 0 0
160 1 1 1.2674174130640554e-02 2.7425981123174115e+01 7.2223710279610787e+00 7.7313165324255184e+00 0 0 0
161 1 1 4.2720682642854432e-02 9.2986577298561581e+00 6.1341188857352036e-01 1.9532307523032362e+01 0 0 0
162 1 1 4.7872558409991411e-02 2.4369143900510533e+01 1.1943489696585541e+01 1.9013532938074960e+01 0 -1 0
163 1 1 3.6442515598534966e-02 4.9039230820225006e+00 1.1875142348639500e+01 8.5025863727117681e+00 0 0 0
164 1 1 4.2564298871071431e-02 2.0426913174397317e+01 1.1807884500304933e+01 8.8798032153952011e+00 0 0 0
165 1 1 3.4309954369626992e-02 6.4931878403824583e-01 1.1682044434326006e+01 1.9776412889133365e+01 0 0 0
166 1 1 4.0158225009122174e-02 1.7105937844436841e+01 1.1766712058086124e+01 1.9266956484221119e+01 0 0 0
167 1 1 4.2726339767762203e-02 1.2918241346835165e+01 8.4761125748033850e-01 8.4176838253634312e+00 0 0 0
168 1 1 4.3430163424788851e-02 2.8336012673493801e+01 4.2837846294253679e-01 8.1964377696548620e+00 0 0 0
169 1 1 3.6865272330326049e-02 9.2000349287573666e+00 6.4516546410576918e+00 1.9175855840303822e+01 0 0 0
170 1 1 4.4175555999849854e-02 2.4728782605091475e+01 6.5498368286458337e+00 1.9324264111999778e+01 0 0 0
171 1 1 4.2879228448168188e-02 5.1824286840513292e+00 6.1414815585959239e+00 8.3355598020484702e+00 0 0 0
172 1 1 3.2725682555975188e-02 2.0554498917011877e+01 5.7639905584791800e+00 8.5174997928384943e+00 0 0 0
173 1 1 3.5842966646016931e-02 1.1490418779236071e+00 5.6621244063700891e+00 1.9860209990597145e+01 0 0 0
174 1 1 3.4841940775924687e-02 1.6962166007576680e+01 6.0013264309991152e+00 1.9576238424983192e+01 0 0 0
175 1 1 3.9459229738081171e-02 1.2595658466158220e+01 6.4237428228274798e+00 8.2081487816856491e+00 0 0 0
176 1 1 3.6256798422094408e-02 2.8135843634919649e+01 6.1233103722725843e+00 8.2935739425411423e+00 0 0 0
177 1 1 7.6976450667415944e-03 7.9099911983828184e+00 4.9212192256519638e-01 1.9408759940539845e+01 0 0 0
178 1 1 1.1420178112106431e-02 2.3043698760206521e+01 1.1615089318331091e+01 1.8574991663622502e+01 0 -1 0
179 1 1 6.1631184446983567e-04 6.6537809009007969e+00 3.3784363353192287e-01 8.3421064764042292e+00 0 1 0
180 1 1 1.6824715704237322e-02 2.2004611191509987e+01 4.8202565035533662e-01 8.3676120223970578e+00 0 1 0
181 1 1 -1.4386617632579715e-03 -7.2255754500335068e-01 1.1859294623308994e+01 1.9381721888678950e+01 0 0 0
182 1 1 4.6358391782448244e-03 1.5681918827309541e+01 1.2010198895547948e+01 1.9275018135671949e+01 0 0 0
183 1 1 1.5185601861632186e-02 1.4178951256323231e+01 3.8593533622636245e-01 7.9775907623334401e+00 0 0 0
184 1 1 8.4797107135842695e-03 2.9793673527012022e+01 3.4967480822477987e-01 8.1479406101134622e+00 0 0 0
185 1 1 1.1617331366179453e-02 7.8848941732059235e+00 6.2170977485939716e+00 1.8714252605044940e+01 0 0 0
186 1 1 1.3327344165251227e-02 2.3424475211169383e+01 6.2232376290172384e+00 1.8882275323690642e+01 0 0 0
187 1 1 2.1059788663429425e-02 6.5673494549478653e+00 6.3542098173832020e+00 7.9934704468044249e+00 0 0 0
188 1 1 1.4442506808694550e-02 2.1830656635100965e+01 6.1782661947331876e+00 8.0041430455379690e+00 0 0 0
189 1 1 1.0710307364347370e-02 -2.5247339892956672e-01 5.7389826780966589e+00 1.9612271864893309e+01 0 0 0
190 1 1 5.0395874822813796e-04 1.5588099871897935e+01 6.2359719167147523e+00 1.9191387554351227e+01 0 0 0
191 1 1 6.9737141419001260e-03 1.3962904452858377e+01 6.1488998085923647e+00 8.0890673151685313e+00 0 0 0
192 1 1 3.4243879504871760e-03 2.9545151785067159e+01 6.0359181204988790e+00 8.1012135620852650e+00 0 0 0
193 1 1 3.6729632935599762e-02 7.1390126607491817e+00 1.0997968956799007e+00 1.8348893526618323e+01 0 0 0
194 1 1 4.1872528436125940e-02 2.2588936511448704e+01 7.1162038055096688e-01 1.7825699163777884e+01 0 0 0
195 1 1 2.3678573837470549e-02 7.1069662585547366e+00 1.1525207795979366e+01 7.2948646451239636e+00 0 0 0
196 1 1 4.1529192621732040e-02 2.2523922940155821e+01 1.1580291899406198e+01 7.4481695642579062e+00 0 0 0
197 1 1 3.4845152269716149e-02 1.4747554059318968e+01 1.1229328436504311e+01 1.8530271275504525e+01 0 0 0
198 1 1 3.9354534086101893e-02 3.0057305759236435e+01 1.1131932098709228e+01 1.8259309193480025e+01 0 0 0
199 1 1 3.5336790744788210e-02 3.0608939574945023e+01 1.1527983878421497e+00 7.3092197548536184e+00 -1 0 0
200 1 1 4.3328333987039544e-02 1.5058958474728295e+01 1.1939614152052229e+00 7.2095966292699298e+00 0 0 0
201 1 1 3.9618200991505245e-02 7.1515273066796725e+00 7.1191096342191056e+00 1.7910971047025939e+01 0 0 0
202 1 1 2.9759677494483099e-02 2.2786226219250715e+01 6.9010662994621637e+00 1.7796908469531584e+01 0 0 0
203 1 1 4.3300023005788835e-02 7.1273099269926501e+00 5.6010619326398317e+00 6.9198505704711879e+00 0 0 0
204 1 1 3.7613912386475941e-02 2.2600957005828562e+01 5.3168514744315498e+00 7.1338175897568812e+00 0 0 0
205 1 1 3.3103747003084230e-02 1.4853614517118066e+01 5.3944598108053281e+00 1.8315928690528274e+01 0 0 0
206 1 1 3.9838504011711136e-02 3.0305167273265880e+01 5.0616376189799857e+00 1.8662072571745835e+01 0 0 0
207 1 1 3.2388366889399015e-02 3.0320490395561901e+01 6.8461871427829015e+00 7.2454484659970326e+00 -1 0 0
208 1 1 2.7284773825747285e-02 1.4901414414194967e+01 6.8839017086649728e+00 7.2170007133078773e+00 0 0 0
209 1 1 -6.6310962638261015e-02 7.1182323736940045e+00 2.4384978653084488e+00 1.6155118423410528e+01 0 0 0
210 1 1 -5.6292615509547839e-02 2.2415661095167955e+01 2.7783112135245247e+00 1.6324586672094053e+01 0 0 0
211 1 1 -6.8086073300850800e-02 7.3918185917389634e+00 1.0078099488185551e+01 5.2593716762562295e+00 0 0 0
212 1 1 -6.0837789184689059e-02 2.2789843916765225e+01 9.6287503996090535e+00 5.7346061991292379e+00 0 0 0
213 1 1 -6.5719988862073919e-02 1.4267372154407056e+01 9.3503878561529135e+00 1.6954204336509417e+01 0 0 0
214 1 1 -6.3518662384418695e-02 -8.1776824788895408e-01 9.5436115981890417e+00 1.6275696674812828e+01 1 0 0
215 1 1 -6.4369184256441087e-02 -4.0718665256348968e-01 2.9800124503785663e+00 5.7350082835802647e+00 0 0 0
216 1 1 -6.0242626080180585e-02 1.5520137492338518e+01 3.2381047259751301e+00 5.7529836300299362e+00 0 0 0
217 1 1 -6.6954606118055732e-02 7.0571088138296298e+00 9.2118216428741881e+00 1.6445067502351790e+01 0 0 0
218 1 1 -6.0965697604274047e-02 2.2765573302826599e+01 8.5254191369069972e+00 1.5899616232831168e+01 0 0 0
219 1 1 -5.7931073437019642e-02 7.2021848745097579e+00 3.5703319335866839e+00 5.4280533805862268e+00 0 0 0
220 1 1 -5.5377190780496841e-02 2.2848154295260830e+01 3.4260427016563226e+00 5.5142594865752210e+00 0 0 0
221 1 1 -5.5965232803383475e-02 1.4872637513459221e+01 3.3431376415766438e+00 1.6657863155334667e+01 0 0 0
222 1 1 -7.0829602900301353e-02 3.0198488962665703e+01 3.0474103411919176e+00 1.7145391439274178e+01 0 0 0
223 1 1 -6.2025041658367912e-02 3.0180312078138183e+01 8.4747330169361419e+00 5.2917772243368635e+00 -1 0 0
224 1 1 -6.3429678978822457e-02 1.5210682990329119e+01 8.4670332442722227e+00 5.3294156383302997e+00 0 0 0
225 1 2 2.2425697413604079e-01 5.9215128015787695e+00 3.3954170556004526e-01 3.1558901191337041e+00 0 1 0
226 1 2 2.2353788760091442e-01 2.0893656618418348e+01 1.1485298870439731e+01 3.2094112841740636e+00 0 0 0
227 1 2 2.2481674783120492e-01 8.8679405213087215e+00 3.4458944292671551e-01 1.3999447563775941e+01 0 0 0
228 1 2 2.3160826341652835e-01 2.3916716875040066e+01 5.2860190159306641e-01 1.3819758264968078e+01 0 0 0
229 1 2 2.3296564877585618e-01 1.3670648159342532e+01 4.6706343193312666e-01 3.1239571153002204e+00 0 0 0
230 1 2 2.2844786786602533e-01 2.9360944522767713e+01 2.4550909245158503e-01 3.2706919327769763e+00 0 0 0
231 1 2 2.2706531717001455e-01 1.0502034098725583e+00 3.9321049956224102e-01 1.4074358702411743e+01 0 1 0
232 1 2 2.2457103826536468e-01 1.5759711271445276e+01 1.1844869616334464e+01 1.4317801114381295e+01 0 0 0
233 1 2 2.2456497842847742e-01 5.3119763696418083e+00 5.4379316328720595e+00 3.1655431758086472e+00 0 0 0
234 1 2 2.3413668875412910e-01 2.1334900838457028e+01 5.6294564857532938e+00 3.4943383073868510e+00 0 0 0
235 1 2 2.1955546884319999e-01 8.4465035781445756e+00 6.8133958741743443e+00 1.4170022271467989e+01 0 0 0
236 1 2 2.2097910831119169e-01 2.4123953405020796e+01 6.4639510797315864e+00 1.3810844443627856e+01 0 0 0
237 1 2 2.3585792875845524e-01 1.3870369424449921e+01 6.0381047780960735e+00 3.1643341243254208e+00 0 0 0
238 1 2 2.2872463126560721e-01 2.8979802580586881e+01 6.4357436331405786e+00 3.0298791108047185e+00 0 0 0
239 1 2 2.2282174284131601e-01 5.8491316125259818e-01 5.8577806447741798e+00 1.4657316718434757e+01 0 0 0
240 1 2 2.3381767231107123e-01 1.6064986137604151e+01 6.0135875816705555e+00 1.3994671060883192e+01 0 0 0
241 1 2 2.3673091012030711e-01 5.9775076661421158e+00 3.8092837507196733e+00 -4.8470921720435600e-01 0 0 0
242 1 2 2.4208357977044720e-01 2.1278857210201419e+01 3.1995911547104328e+00 -5.5519453456743928e-01 0 0 0
243 1 2 2.2871006602361119e-01 8.1179391919263146e+00 8.4974276249371989e+00 1.0237381423534400e+01 0 0 0
244 1 2 2.3744873774745570e-01 2.3535644802457270e+01 8.6560226284406774e+00 1.0278039792307590e+01 0 0 0
245 1 2 2.3383685863556930e-01 1.3614117955620610e+01 8.2118211686449030e+00 2.6657552964659659e-02 0 0 0
246 1 2 2.4217946240998528e-01 2.9178423064617579e+01 8.3467704070060051e+00 -2.4357498729365684e-01 0 0 0
247 1 2 2.3853873861898234e-01 6.6619457105917390e-01 3.5215672170132248e+00 1.0199421648784339e+01 0 0 0
248 1 2 2.4102351286225099e-01 1.5997392930448246e+01 3.2934292124052362e+00 1.0347391486344875e+01 0 0 0
249 1 2 2.4868105020117173e-01 5.7350276386111281e+00 9.4576833462398255e+00 6.7546745156579546e-02 0 0 0
250 1 2 2.4136511552383227e-01 2.1891450994764298e+01 8.7230237486414168e+00 -4.1726275109013494e-01 0 0 0
251 1 2 2.4268458633077677e-01 8.5151530157858453e+00 3.3590243007159883e+00 1.0401886883441431e+01 0 0 0
252 1 2 2.4996169905709420e-01 2.3990355085249750e+01 2.5196322178984709e+00 1.0674244096487133e+01 0 0 0
253 1 2 2.4036189464348934e-01 1.3672319038104062e+01 2.6162967932527113e+00 -5.5635386078572224e-01 0 0 0
254 1 2 2.4283650770690290e-01 2.8839159049854779e+01 2.6747424703144627e+00 -3.1883538518408355e-01 0 0 0
255 1 2 2.4779413356393512e-01 -2.8989043566371275e-01 8.9758303435389379e+00 1.0777857450635803e+01 0 0 0
256 1 2 2.4877073354389811e-01 1.5486958411182556e+01 9.3048503935501472e+00 1.0171028632329071e+01 0 0 0
257 1 2 2.4197602084705311e-01 1.5519068512552796e+00 2.8855671374297236e+00 1.8895582203941870e+00 0 0 0
258 1 2 2.3200097277894283e-01 1.7297014305917525e+01 2.8433587548309993e+00 2.4628247908925665e+00 0 0 0
259 1 2 2.3005836686232120e-01 1.2479045467498349e+01 9.1453962286076624e+00 1.2476095250907759e+01 0 0 0
260 1 2 2.2940492766824852e-01 2.7899967364711035e+01 9.7743002476251419e+00 1.2959918840678238e+01 0 0 0
261 1 2 2.3530766750662499e-01 9.2438897104710573e+00 9.2234494775894262e+00 2.2757241354422266e+00 0 0 0
262 1 2 2.3998015391933319e-01 2.4751548960678196e+01 9.3844715764412960e+00 2.0391213604494025e+00 0 0 0
263 1 2 2.3138697045456402e-01 5.0831881708958049e+00 3.3902271785559952e+00 1.2675125295814880e+01 0 0 0
264 1 2 2.3174698893049556e-01 2.0183301528205142e+01 2.9864415195702909e+00 1.3133652911438185e+01 0 0 0
265 1 2 2.2805273794248021e-01 1.3614629981466382e+00 8.7194546221697813e+00 2.5265208266624968e+00 0 0 0
266 1 2 2.3161969532810839e-01 1.7384534684260696e+01 8.6446174617741569e+00 2.0008086496228579e+00 0 0 0
267 1 2 2.3920548384327675e-01 1.2745990596931787e+01 4.2055257140486662e+00 1.3052115147012415e+01 0 0 0
268 1 2 2.4297501311130354e-01 2.8321325397217286e+01 3.4942408504060776e+00 1.3045908259597617e+01 0 0 0
269 1 2 2.3145954526805290e-01 9.5159716921002637e+00 3.5303523087361532e+00 2.1283292411813668e+00 0 0 0
270 1 2 2.3621291223908880e-01 2.4582854356646976e+01 3.7791931023306065e+00 2.1360747645860982e+00 0 0 0
271 1 2 2.3309466351624764e-01 4.3519991978575083e+00 9.1055555551938419e+00 1.3068124935618300e+01 0 0 0
272 1 2 2.3827140450922152e-01 1.9867407683659437e+01 9.2947767700178581e+00 1.2739535015509103e+01 0 0 0
273 1 2 2.3818928565113603e-01 9.9779005666253013e+00 3.2507095205148739e+00 1.6681263125040129e+01 0 0 0
274 1 2 2.2749428785509537e-01 2.5365101755150636e+01 3.2314219067189747e+00 1.6819940495533064e+01 0 0 0
275 1 2 2.2863283798599449e-01 4.4261433846130132e+00 9.2773516581416118e+00 5.6787569518082650e+00 0 0 0
276 1 2 2.2218129412813101e-01 1.9931456430799976e+01 9.0621978556245963e+00 6.2686787580365397e+00 0 0 0
277 1 2 2.3139237364610576e-01 1.9742108524162378e+00 9.2188364143959163e+00 1.7137777507625831e+01 0 0 0
278 1 2 2.2993613573597255e-01 1.7243333571171672e+01 9.0283362936644274e+00 1.6553544603931030e+01 0 0 0
279 1 2 2.2736971045632837e-01 1.2407845311525985e+01 3.5703092188282479e+00 5.6961017380665337e+00 0 0 0