ITEM: TIMESTEP
0
ITEM: NUMBER OF ATOMS
576
ITEM: BOX BOUNDS xy xz yz pp pp pp
-3.8734541101000000e+00 1.7704000473000001e+01 0.0000000000000000e+00
0.0000000000000000e+00 2.5111999511699999e+01 -3.8734541101000000e+00
0.0000000000000000e+00 1.2813326682700000e+01 0.0000000000000000e+00
ITEM: ATOMS id type xs ys zs
1 1 0.223161 0.315107 0.873623
2 1 0.776839 0.684893 0.126378
3 1 0.0268387 0.565107 0.626377
4 1 0.473161 0.934893 0.373622
5 1 0.223161 0.815107 0.873622
6 1 0.776839 0.184893 0.126378
7 1 0.0268389 0.065107 0.626378
8 1 0.473161 0.434893 0.373622
9 1 0.723161 0.315107 0.873623
10 1 0.276839 0.684893 0.126378
11 1 0.526839 0.565107 0.626377
12 1 0.973161 0.934893 0.373622
13 1 0.723161 0.815107 0.873622
14 1 0.276839 0.184893 0.126378
15 1 0.526839 0.0651069 0.626378
16 1 0.973161 0.434893 0.373622
17 1 0.15516 0.316434 0.679178
18 1 0.844839 0.683566 0.320821
19 1 0.0948396 0.566434 0.820821
20 1 0.40516 0.933566 0.179179
21 1 0.15516 0.816434 0.679178
22 1 0.844839 0.183566 0.320821
23 1 0.0948395 0.0664339 0.820822
24 1 0.40516 0.433566 0.179179
25 1 0.65516 0.316434 0.679178
26 1 0.344839 0.683566 0.320821
27 1 0.59484 0.566434 0.820821
28 1 0.905161 0.933566 0.179179
29 1 0.655161 0.816434 0.679179
30 1 0.344839 0.183566 0.320821
31 1 0.594839 0.0664339 0.820821
32 1 0.905161 0.433566 0.179179
33 1 0.277257 0.253789 0.693097
34 1 0.722743 0.746212 0.306903
35 1 0.972743 0.503788 0.806903
36 1 0.527257 0.996212 0.193097
37 1 0.277258 0.753788 0.693097
38 1 0.722743 0.246212 0.306903
39 1 0.972743 0.00378848 0.806903
40 1 0.527257 0.496212 0.193097
41 1 0.777257 0.253788 0.693097
42 1 0.222743 0.746212 0.306903
43 1 0.472743 0.503788 0.806903
44 1 0.027257 0.996212 0.193097
45 1 0.777257 0.753788 0.693097
46 1 0.222743 0.246212 0.306903
47 1 0.472743 0.00378844 0.806903
48 1 0.0272571 0.496212 0.193097
49 1 0.295859 0.276915 0.886845
50 1 0.704141 0.723085 0.113155
51 1 0.95414 0.526915 0.613155
52 1 0.54586 0.973085 0.386845
53 1 0.295859 0.776915 0.886845
54 1 0.704141 0.223085 0.113155
55 1 0.954141 0.0269152 0.613155
56 1 0.545859 0.473085 0.386845
57 1 0.79586 0.276915 0.886844
58 1 0.204141 0.723085 0.113155
59 1 0.45414 0.526915 0.613155
60 1 0.0458596 0.973085 0.386845
61 1 0.795859 0.776915 0.886845
62 1 0.204141 0.223085 0.113155
63 1 0.454141 0.0269153 0.613155
64 1 0.0458595 0.473085 0.386845
65 1 0.337097 0.308286 0.722187
66 1 0.662903 0.691714 0.277813
67 1 0.912903 0.558286 0.777812
68 1 0.587097 0.941714 0.222188
69 1 0.337097 0.808286 0.722187
70 1 0.662903 0.191714 0.277813
71 1 0.912903 0.058286 0.777813
72 1 0.587097 0.441714 0.222187
73 1 0.837097 0.308286 0.722188
74 1 0.162903 0.691714 0.277813
75 1 0.412903 0.558286 0.777812
76 1 0.0870972 0.941714 0.222188
77 1 0.837097 0.808286 0.722187
78 1 0.162903 0.191714 0.277813
79 1 0.412903 0.0582859 0.777813
80 1 0.0870971 0.441714 0.222187
81 1 0.216511 0.369473 0.710887
82 1 0.783488 0.630528 0.289114
83 1 0.0334887 0.619473 0.789114
84 1 0.466511 0.880528 0.210886
85 1 0.216512 0.869472 0.710886
86 1 0.783488 0.130528 0.289114
87 1 0.0334884 0.119472 0.789114
88 1 0.466512 0.380528 0.210886
89 1 0.716511 0.369473 0.710887
90 1 0.283488 0.630528 0.289114
91 1 0.533488 0.619472 0.789114
92 1 0.966512 0.880528 0.210886
93 1 0.716512 0.869472 0.710886
94 1 0.283488 0.130528 0.289114
95 1 0.533488 0.119472 0.789114
96 1 0.966512 0.380528 0.210886
97 2 0.208215 0.320441 0.948907
98 2 0.791786 0.679559 0.0510931
99 2 0.0417854 0.570441 0.551093
100 2 0.458215 0.929559 0.448907
101 2 0.208214 0.820441 0.948907
102 2 0.791786 0.179559 0.0510931
103 2 0.0417856 0.0704413 0.551093
104 2 0.458214 0.429559 0.448907
105 2 0.708215 0.320441 0.948907
106 2 0.291786 0.679559 0.0510932
107 2 0.541785 0.570441 0.551093
108 2 0.958215 0.929559 0.448907
109 2 0.708214 0.820441 0.948907
110 2 0.291786 0.179559 0.0510932
111 2 0.541786 0.0704412 0.551093
112 2 0.958214 0.429559 0.448907
113 2 0.0937626 0.328724 0.625922
114 2 0.906237 0.671276 0.374078
115 2 0.156237 0.578724 0.874078
116 2 0.343763 0.921276 0.125922
117 2 0.0937626 0.828724 0.625922
118 2 0.906237 0.171276 0.374078
119 2 0.156237 0.078724 0.874078
120 2 0.343763 0.421276 0.125922
121 2 0.593763 0.328724 0.625922
122 2 0.406237 0.671276 0.374078
123 2 0.656237 0.578724 0.874078
124 2 0.843763 0.921276 0.125922
125 2 0.593763 0.828724 0.625922
126 2 0.406237 0.171276 0.374078
127 2 0.656237 0.078724 0.874078
128 2 0.843763 0.421276 0.125922
129 2 0.296487 0.224164 0.641032
130 2 0.703513 0.775836 0.358968
131 2 0.953513 0.474164 0.858968
132 2 0.546487 0.0258362 0.141032
133 2 0.296487 0.724164 0.641032
134 2 0.703513 0.275836 0.358968
135 2 0.953513 0.974164 0.858968
136 2 0.546487 0.525836 0.141032
137 2 0.796487 0.224164 0.641032
138 2 0.203513 0.775836 0.358968
139 2 0.453513 0.474164 0.858968
140 2 0.0464873 0.0258362 0.141032
141 2 0.796487 0.724164 0.641032
142 2 0.203513 0.275836 0.358968
143 2 0.453513 0.974164 0.858968
144 2 0.0464874 0.525836 0.141032
145 2 0.32163 0.262375 0.969165
146 2 0.67837 0.737625 0.030835
147 2 0.92837 0.512375 0.530835
148 2 0.57163 0.987625 0.469165
149 2 0.32163 0.762375 0.969166
150 2 0.67837 0.237625 0.030835
151 2 0.92837 0.0123752 0.530835
152 2 0.57163 0.487625 0.469165
153 2 0.82163 0.262375 0.969164
154 2 0.17837 0.737625 0.0308348
155 2 0.42837 0.512375 0.530835
156 2 0.0716298 0.987625 0.469165
157 2 0.82163 0.762375 0.969165
158 2 0.17837 0.237625 0.0308349
159 2 0.42837 0.0123752 0.530835
160 2 0.07163 0.487625 0.469165
161 2 0.388878 0.306887 0.688506
162 2 0.611122 0.693113 0.311494
163 2 0.861122 0.556887 0.811494
164 2 0.638878 0.943113 0.188506
165 2 0.388877 0.806887 0.688507
166 2 0.611122 0.193113 0.311494
167 2 0.861122 0.0568867 0.811494
168 2 0.638878 0.443113 0.188506
169 2 0.888878 0.306887 0.688506
170 2 0.111122 0.693113 0.311494
171 2 0.361122 0.556887 0.811494
172 2 0.138878 0.943113 0.188506
173 2 0.888878 0.806887 0.688506
174 2 0.111122 0.193113 0.311494
175 2 0.361122 0.0568866 0.811494
176 2 0.138878 0.443113 0.188506
177 2 0.186199 0.408278 0.677708
178 2 0.813801 0.591721 0.322292
179 2 0.063801 0.658279 0.822292
180 2 0.436199 0.841721 0.177708
181 2 0.186199 0.908279 0.677708
182 2 0.813801 0.0917214 0.322292
183 2 0.0638009 0.158278 0.822292
184 2 0.436199 0.341721 0.177708
185 2 0.686199 0.408279 0.677708
186 2 0.313801 0.591721 0.322292
187 2 0.563801 0.658279 0.822292
188 2 0.936199 0.841721 0.177708
189 2 0.686199 0.908279 0.677708
190 2 0.313801 0.0917214 0.322292
191 2 0.563801 0.158279 0.822292
192 2 0.936199 0.341721 0.177708
193 3 0.150554 0.29367 0.791284
194 3 0.849447 0.706329 0.208717
195 3 0.0994466 0.543671 0.708717
196 3 0.400553 0.956329 0.291283
197 3 0.150553 0.79367 0.791284
198 3 0.849447 0.206329 0.208717
199 3 0.0994466 0.0436706 0.708717
200 3 0.400553 0.456329 0.291283
201 3 0.650554 0.293671 0.791283
202 3 0.349447 0.706329 0.208717
203 3 0.599447 0.543671 0.708717
204 3 0.900553 0.956329 0.291283
205 3 0.650553 0.793671 0.791283
206 3 0.349447 0.206329 0.208717
207 3 0.599447 0.0436706 0.708717
208 3 0.900553 0.456329 0.291283
209 3 0.0661511 0.301947 0.807413
210 3 0.933849 0.698053 0.192587
211 3 0.183849 0.551947 0.692587
212 3 0.316151 0.948053 0.307413
213 3 0.0661508 0.801947 0.807413
214 3 0.933849 0.198053 0.192587
215 3 0.183849 0.0519469 0.692587
216 3 0.316151 0.448053 0.307413
217 3 0.566151 0.301947 0.807413
218 3 0.433849 0.698053 0.192587
219 3 0.683849 0.551947 0.692587
220 3 0.816151 0.948053 0.307413
221 3 0.566151 0.801947 0.807413
222 3 0.433849 0.198053 0.192587
223 3 0.683849 0.0519469 0.692587
224 3 0.816151 0.448053 0.307413
225 3 0.196353 0.278733 0.627954
226 3 0.803648 0.721267 0.372046
227 3 0.0536474 0.528733 0.872046
228 3 0.446353 0.971267 0.127954
229 3 0.196352 0.778733 0.627953
230 3 0.803648 0.221267 0.372046
231 3 0.0536476 0.0287329 0.872046
232 3 0.446352 0.471267 0.127954
233 3 0.696353 0.278733 0.627954
234 3 0.303648 0.721267 0.372046
235 3 0.553647 0.528733 0.872046
236 3 0.946353 0.971267 0.127954
237 3 0.696352 0.778733 0.627954
238 3 0.303648 0.221267 0.372046
239 3 0.553648 0.0287329 0.872046
240 3 0.946352 0.471267 0.127954
241 3 0.14895 0.251654 0.522144
242 3 0.85105 0.748346 0.477856
243 3 0.10105 0.501654 0.977856
244 3 0.39895 0.998346 0.0221439
245 3 0.14895 0.751654 0.522144
246 3 0.85105 0.248346 0.477856
247 3 0.10105 0.00165429 0.977856
248 3 0.39895 0.498346 0.0221439
249 3 0.64895 0.251654 0.522144
250 3 0.35105 0.748346 0.477856
251 3 0.60105 0.501654 0.977856
252 3 0.89895 0.998346 0.0221438
253 3 0.64895 0.751654 0.522144
254 3 0.35105 0.248346 0.477856
255 3 0.60105 0.00165424 0.977856
256 3 0.89895 0.498346 0.0221438
257 3 0.28706 0.230254 0.798215
258 3 0.71294 0.769746 0.201785
259 3 0.96294 0.480254 0.701785
260 3 0.53706 0.0197462 0.298215
261 3 0.287061 0.730253 0.798215
262 3 0.71294 0.269746 0.201785
263 3 0.96294 0.980254 0.701785
264 3 0.53706 0.519746 0.298215
265 3 0.78706 0.230254 0.798215
266 3 0.21294 0.769746 0.201785
267 3 0.46294 0.480254 0.701785
268 3 0.0370601 0.0197462 0.298215
269 3 0.78706 0.730254 0.798215
270 3 0.21294 0.269746 0.201785
271 3 0.46294 0.980254 0.701785
272 3 0.0370603 0.519746 0.298215
273 3 0.221307 0.190753 0.806395
274 3 0.778693 0.809248 0.193606
275 3 0.0286928 0.440752 0.693606
276 3 0.471307 0.0592475 0.306394
277 3 0.221307 0.690752 0.806394
278 3 0.778693 0.309248 0.193606
279 3 0.0286928 0.940752 0.693606
280 3 0.471307 0.559248 0.306394
281 3 0.721307 0.190753 0.806395
282 3 0.278693 0.809248 0.193606
283 3 0.528693 0.440752 0.693606
284 3 0.971307 0.0592475 0.306394
285 3 0.721307 0.690752 0.806394
286 3 0.278693 0.309248 0.193606
287 3 0.528693 0.940752 0.693606
288 3 0.971307 0.559248 0.306394
289 3 0.370262 0.304554 0.834299
290 3 0.629738 0.695446 0.165701
291 3 0.879738 0.554554 0.665701
292 3 0.620262 0.945446 0.334299
293 3 0.370263 0.804554 0.834299
294 3 0.629738 0.195446 0.165701
295 3 0.879738 0.0545541 0.665701
296 3 0.620262 0.445446 0.334299
297 3 0.870262 0.304554 0.834299
298 3 0.129738 0.695446 0.165701
299 3 0.379738 0.554554 0.665701
300 3 0.120262 0.945446 0.334299
301 3 0.870262 0.804554 0.834299
302 3 0.129738 0.195446 0.165701
303 3 0.379738 0.054554 0.665701
304 3 0.120262 0.445446 0.334299
305 3 0.404602 0.35318 0.903746
306 3 0.595398 0.64682 0.0962539
307 3 0.845398 0.60318 0.596254
308 3 0.654602 0.89682 0.403746
309 3 0.404602 0.85318 0.903746
310 3 0.595398 0.14682 0.0962539
311 3 0.845398 0.10318 0.596254
312 3 0.654602 0.39682 0.403746
313 3 0.904602 0.35318 0.903746
314 3 0.0953982 0.64682 0.096254
315 3 0.345398 0.60318 0.596254
316 3 0.154602 0.89682 0.403746
317 3 0.904602 0.85318 0.903746
318 3 0.0953982 0.14682 0.096254
319 3 0.345398 0.10318 0.596254
320 3 0.154602 0.39682 0.403746
321 3 0.280228 0.356071 0.661021
322 3 0.719773 0.643929 0.338978
323 3 0.969772 0.606071 0.838979
324 3 0.530228 0.893928 0.161021
325 3 0.280228 0.856071 0.661023
326 3 0.719773 0.143929 0.338978
327 3 0.969772 0.106071 0.838978
328 3 0.530228 0.393929 0.161022
329 3 0.780228 0.356072 0.66102
330 3 0.219773 0.643929 0.338978
331 3 0.469773 0.606072 0.838979
332 3 0.0302272 0.893928 0.161021
333 3 0.780227 0.856071 0.661022
334 3 0.219773 0.143929 0.338978
335 3 0.469773 0.106071 0.838978
336 3 0.0302273 0.393929 0.161022
337 3 0.327319 0.404848 0.639096
338 3 0.672681 0.595152 0.360904
339 3 0.922681 0.654849 0.860904
340 3 0.577319 0.845151 0.139096
341 3 0.327319 0.904848 0.639096
342 3 0.672681 0.0951515 0.360904
343 3 0.922681 0.154848 0.860904
344 3 0.577319 0.345152 0.139096
345 3 0.827319 0.404849 0.639096
346 3 0.172681 0.595152 0.360904
347 3 0.422681 0.654849 0.860904
348 3 0.0773186 0.845151 0.139096
349 3 0.827319 0.904848 0.639096
350 3 0.172681 0.0951515 0.360904
351 3 0.422681 0.154848 0.860904
352 3 0.0773186 0.345152 0.139096
353 3 0.242408 0.371754 0.832932
354 3 0.757592 0.628246 0.167068
355 3 0.00759214 0.621754 0.667068
356 3 0.492408 0.878246 0.332932
357 3 0.242408 0.871754 0.832932
358 3 0.757592 0.128246 0.167068
359 3 0.0075923 0.121754 0.667068
360 3 0.492408 0.378246 0.332932
361 3 0.742408 0.371754 0.832932
362 3 0.257592 0.628246 0.167068
363 3 0.507592 0.621754 0.667068
364 3 0.992408 0.878246 0.332932
365 3 0.742408 0.871754 0.832932
366 3 0.257592 0.128246 0.167068
367 3 0.507592 0.121754 0.667068
368 3 0.992408 0.378246 0.332932
369 3 0.208469 0.42134 0.87949
370 3 0.791531 0.57866 0.12051
371 3 0.0415314 0.67134 0.62051
372 3 0.458469 0.82866 0.37949
373 3 0.208469 0.92134 0.87949
374 3 0.791531 0.0786602 0.12051
375 3 0.0415314 0.17134 0.62051
376 3 0.458469 0.32866 0.37949
377 3 0.708469 0.42134 0.87949
378 3 0.291531 0.57866 0.12051
379 3 0.541531 0.67134 0.62051
380 3 0.958469 0.82866 0.37949
381 3 0.708469 0.92134 0.87949
382 3 0.291531 0.0786602 0.12051
383 3 0.541531 0.17134 0.62051
384 3 0.958469 0.32866 0.37949
385 4 0.00517465 0.309135 0.728002
386 4 0.994825 0.690865 0.271998
387 4 0.244825 0.559135 0.771998
388 4 0.255175 0.940865 0.228002
389 4 0.00517472 0.809135 0.728002
390 4 0.994825 0.190865 0.271998
391 4 0.244825 0.0591354 0.771998
392 4 0.255175 0.440865 0.228002
393 4 0.505175 0.309135 0.728002
394 4 0.494825 0.690865 0.271998
395 4 0.744825 0.559135 0.771998
396 4 0.755175 0.940865 0.228002
397 4 0.505175 0.809135 0.728002
398 4 0.494825 0.190865 0.271998
399 4 0.744825 0.0591354 0.771998
400 4 0.755175 0.440865 0.228002
401 4 0.0595574 0.299546 0.900261
402 4 0.940443 0.700454 0.0997391
403 4 0.190442 0.549546 0.599739
404 4 0.309558 0.950454 0.400261
405 4 0.0595574 0.799546 0.900261
406 4 0.940443 0.200454 0.0997391
407 4 0.190443 0.049546 0.599739
408 4 0.309557 0.450454 0.400261
409 4 0.559558 0.299546 0.900261
410 4 0.440443 0.700454 0.0997391
411 4 0.690442 0.549546 0.599739
412 4 0.809557 0.950454 0.400261
413 4 0.559557 0.799546 0.900261
414 4 0.440443 0.200454 0.0997391
415 4 0.690443 0.049546 0.599739
416 4 0.809557 0.450454 0.400261
417 4 0.1793 0.212247 0.487494
418 4 0.8207 0.787753 0.512506
419 4 0.0706995 0.462247 0.0125055
420 4 0.4293 0.0377528 0.987494
421 4 0.1793 0.712247 0.487495
422 4 0.8207 0.287753 0.512506
423 4 0.0706996 0.962247 0.0125055
424 4 0.4293 0.537753 0.987495
425 4 0.6793 0.212247 0.487494
426 4 0.3207 0.787753 0.512506
427 4 0.5707 0.462247 0.0125056
428 4 0.9293 0.0377528 0.987494
429 4 0.6793 0.712247 0.487494
430 4 0.3207 0.287753 0.512506
431 4 0.5707 0.962247 0.0125055
432 4 0.9293 0.537753 0.987494
433 4 0.0850023 0.272864 0.467882
434 4 0.914998 0.727136 0.532118
435 4 0.164998 0.522864 0.0321184
436 4 0.335002 0.977136 0.967882
437 4 0.0850024 0.772864 0.467882
438 4 0.914998 0.227136 0.532118
439 4 0.164998 0.0228636 0.0321184
440 4 0.335002 0.477136 0.967882
441 4 0.585002 0.272864 0.467882
442 4 0.414998 0.727136 0.532118
443 4 0.664998 0.522864 0.0321184
444 4 0.835002 0.977136 0.967882
445 4 0.585002 0.772864 0.467882
446 4 0.414998 0.227136 0.532118
447 4 0.664998 0.0228636 0.0321184
448 4 0.835002 0.477136 0.967882
449 4 0.189591 0.160208 0.727591
450 4 0.810409 0.839793 0.272409
451 4 0.0604089 0.410207 0.772409
452 4 0.439591 0.0897926 0.227591
453 4 0.189591 0.660207 0.727591
454 4 0.810409 0.339793 0.272409
455 4 0.060409 0.910207 0.772409
456 4 0.439591 0.589793 0.227591
457 4 0.689591 0.160208 0.727591
458 4 0.310409 0.839793 0.272409
459 4 0.560409 0.410207 0.772409
460 4 0.939591 0.0897926 0.227591
461 4 0.689591 0.660207 0.727591
462 4 0.310409 0.339793 0.272409
463 4 0.560409 0.910207 0.772409
464 4 0.939591 0.589793 0.227591
465 4 0.201054 0.187077 0.892005
466 4 0.798946 0.812923 0.107995
467 4 0.048946 0.437077 0.607995
468 4 0.451054 0.0629226 0.392005
469 4 0.201054 0.687077 0.892005
470 4 0.798946 0.312923 0.107995
471 4 0.0489461 0.937077 0.607995
472 4 0.451054 0.562923 0.392005
473 4 0.701054 0.187077 0.892005
474 4 0.298946 0.812923 0.107995
475 4 0.548946 0.437077 0.607995
476 4 0.951054 0.0629226 0.392005
477 4 0.701054 0.687077 0.892005
478 4 0.298946 0.312923 0.107995
479 4 0.548946 0.937077 0.607995
480 4 0.951054 0.562923 0.392005
481 4 0.433139 0.391547 0.86129
482 4 0.566861 0.608453 0.13871
483 4 0.816861 0.641547 0.63871
484 4 0.683139 0.858453 0.36129
485 4 0.433139 0.891547 0.86129
486 4 0.566861 0.108453 0.13871
487 4 0.816861 0.141547 0.63871
488 4 0.683139 0.358453 0.36129
489 4 0.933139 0.391547 0.86129
490 4 0.0668611 0.608453 0.13871
491 4 0.316861 0.641547 0.63871
492 4 0.183139 0.858453 0.36129
493 4 0.933139 0.891547 0.86129
494 4 0.0668611 0.108453 0.13871
495 4 0.316861 0.141547 0.63871
496 4 0.183139 0.358453 0.36129
497 4 0.400663 0.357999 0.99921
498 4 0.599336 0.642001 0.000789432
499 4 0.849336 0.607999 0.500789
500 4 0.650664 0.892001 0.499211
501 4 0.400663 0.857999 0.99921
502 4 0.599336 0.142001 0.000789412
503 4 0.849336 0.107999 0.50079
504 4 0.650664 0.392001 0.499211
505 4 0.900664 0.357999 0.999211
506 4 0.0993365 0.642001 0.000789488
507 4 0.349336 0.607999 0.500789
508 4 0.150664 0.892001 0.499211
509 4 0.900664 0.857999 0.99921
510 4 0.0993365 0.142001 0.000789547
511 4 0.349336 0.107999 0.500789
512 4 0.150664 0.392001 0.499211
513 4 0.301835 0.452539 0.642369
514 4 0.698165 0.547461 0.357631
515 4 0.948165 0.702539 0.857631
516 4 0.551835 0.797461 0.142369
517 4 0.301835 0.952539 0.642369
518 4 0.698165 0.0474609 0.357631
519 4 0.948165 0.202539 0.857631
520 4 0.551835 0.297461 0.142369
521 4 0.801835 0.452539 0.642369
522 4 0.198165 0.547461 0.357631
523 4 0.448165 0.702539 0.857631
524 4 0.0518348 0.797461 0.142369
525 4 0.801835 0.952539 0.642369
526 4 0.198165 0.0474609 0.357631
527 4 0.448165 0.202539 0.857631
528 4 0.0518347 0.297461 0.142369
529 4 0.38948 0.39684 0.61037
530 4 0.61052 0.60316 0.389631
531 4 0.86052 0.64684 0.88963
532 4 0.63948 0.85316 0.11037
533 4 0.38948 0.89684 0.610369
534 4 0.61052 0.10316 0.389631
535 4 0.86052 0.14684 0.88963
536 4 0.63948 0.35316 0.11037
537 4 0.88948 0.39684 0.61037
538 4 0.11052 0.60316 0.389631
539 4 0.36052 0.64684 0.88963
540 4 0.13948 0.85316 0.11037
541 4 0.88948 0.89684 0.610369
542 4 0.11052 0.10316 0.389631
543 4 0.36052 0.14684 0.889631
544 4 0.13948 0.35316 0.110369
545 4 0.19585 0.46568 0.828563
546 4 0.80415 0.53432 0.171437
547 4 0.0541502 0.71568 0.671437
548 4 0.44585 0.78432 0.328563
549 4 0.19585 0.96568 0.828563
550 4 0.80415 0.0343198 0.171437
551 4 0.0541502 0.21568 0.671437
552 4 0.44585 0.28432 0.328563
553 4 0.69585 0.46568 0.828563
554 4 0.30415 0.53432 0.171437
555 4 0.55415 0.71568 0.671437
556 4 0.94585 0.78432 0.328563
557 4 0.69585 0.96568 0.828563
558 4 0.30415 0.0343198 0.171437
559 4 0.55415 0.21568 0.671437
560 4 0.94585 0.28432 0.328563
561 4 0.195436 0.417447 0.968925
562 4 0.804564 0.582553 0.031075
563 4 0.0545639 0.667447 0.531075
564 4 0.445436 0.832553 0.468925
565 4 0.195436 0.917447 0.968925
566 4 0.804564 0.082553 0.031075
567 4 0.0545639 0.167447 0.531075
568 4 0.445436 0.332553 0.468925
569 4 0.695436 0.417447 0.968925
570 4 0.304564 0.582553 0.031075
571 4 0.554564 0.667447 0.531075
572 4 0.945436 0.832553 0.468925
573 4 0.695436 0.917447 0.968925
574 4 0.304564 0.082553 0.031075
575 4 0.554564 0.167447 0.531075
576 4 0.945436 0.332553 0.468925
ITEM: TIMESTEP
1000
ITEM: NUMBER OF ATOMS
576
ITEM: BOX BOUNDS xy xz yz pp pp pp
-5.7119582660218438e+00 1.9265777367306882e+01 -2.7088088656320009e-02
-2.4142589667108521e+00 2.7545843551710092e+01 -4.1230932830586431e+00
-2.2703818627147943e-01 1.3040364868971484e+01 1.9585073299207733e-02
ITEM: ATOMS id type xs ys zs
1 1 0.25868 0.313031 0.871106
4 1 0.491283 0.933825 0.366808
5 1 0.252722 0.813351 0.879468
8 1 0.498274 0.436857 0.38973
10 1 0.248655 0.686915 0.122621
11 1 0.502925 0.559372 0.621249
14 1 0.251048 0.187019 0.14664
15 1 0.499816 0.0546673 0.622824
16 1 0.00946417 0.436295 0.384106
17 1 0.184485 0.314304 0.678562
19 1 0.0621484 0.569932 0.806933
20 1 0.424214 0.93531 0.175054
21 1 0.183471 0.817206 0.684865
23 1 0.0653568 0.0643658 0.811043
24 1 0.437681 0.435585 0.201573
26 1 0.313811 0.687858 0.311932
30 1 0.316532 0.182379 0.327687
33 1 0.287544 0.269102 0.67546
36 1 0.527306 0.979481 0.179639
37 1 0.287833 0.772871 0.684431
42 1 0.211808 0.731789 0.30777
43 1 0.467112 0.514412 0.813012
44 1 0.0285514 0.984909 0.189411
46 1 0.218416 0.232025 0.327315
47 1 0.459788 0.0135876 0.807058
48 1 0.051795 0.481656 0.199736
49 1 0.315188 0.282361 0.861432
53 1 0.312613 0.784389 0.868076
58 1 0.192386 0.718965 0.130545
59 1 0.449772 0.524969 0.629513
60 1 0.0546443 0.971569 0.371363
62 1 0.189256 0.217395 0.146579
63 1 0.440096 0.0250819 0.623748
64 1 0.0714844 0.464112 0.381972
65 1 0.333913 0.317403 0.697661
69 1 0.337369 0.820653 0.7139
74 1 0.162461 0.685213 0.277975
75 1 0.417232 0.559006 0.777397
76 1 0.0743297 0.938387 0.214727
78 1 0.168864 0.186483 0.303857
79 1 0.410801 0.0594435 0.775499
80 1 0.0935289 0.432312 0.225045
81 1 0.236304 0.358991 0.70923
83 1 0.0146113 0.613709 0.778279
84 1 0.469994 0.891851 0.205222
85 1 0.230992 0.859763 0.718382
87 1 0.0189087 0.107516 0.777754
88 1 0.489319 0.394416 0.23314
90 1 0.266723 0.643014 0.278324
91 1 0.512795 0.60465 0.773568
94 1 0.265823 0.139298 0.292414
95 1 0.518232 0.102473 0.783013
97 2 0.257203 0.314093 0.948769
99 2 0.00390101 0.567506 0.547036
100 2 0.486764 0.937676 0.444174
101 2 0.246496 0.807684 0.953326
104 2 0.491127 0.43563 0.465617
106 2 0.2576 0.688389 0.0500331
107 2 0.509067 0.559406 0.549393
110 2 0.254063 0.190217 0.0731901
111 2 0.507451 0.0514901 0.549412
112 2 0.00182001 0.438403 0.457378
113 2 0.136505 0.32457 0.627068
115 2 0.113921 0.578707 0.858545
116 2 0.377619 0.924947 0.120398
117 2 0.134906 0.826246 0.636134
119 2 0.116769 0.0777946 0.856678
120 2 0.389627 0.423191 0.154994
122 2 0.363509 0.678795 0.366647
126 2 0.36352 0.170212 0.380437
129 2 0.304812 0.246183 0.624133
133 2 0.317102 0.753156 0.64667
138 2 0.186677 0.751965 0.353402
139 2 0.443873 0.491867 0.852414
140 2 0.0511471 0.00898696 0.15017
142 2 0.199558 0.256266 0.372718
143 2 0.434512 0.988395 0.844737
144 2 0.0774345 0.505315 0.161603
145 2 0.3451 0.270225 0.930847
149 2 0.333298 0.767844 0.939055
154 2 0.171235 0.730987 0.0546514
155 2 0.430108 0.509723 0.557125
156 2 0.0779812 0.982848 0.446032
158 2 0.166103 0.22645 0.0700821
159 2 0.418828 0.0136797 0.548517
160 2 0.0952129 0.47514 0.457036
161 2 0.369188 0.315622 0.650526
165 2 0.373455 0.821455 0.666857
170 2 0.122934 0.685487 0.320422
171 2 0.375352 0.558395 0.813207
172 2 0.110704 0.940053 0.170968
174 2 0.134101 0.191991 0.353431
175 2 0.372185 0.0596177 0.814032
176 2 0.134353 0.431521 0.192988
177 2 0.204873 0.389499 0.679843
179 2 0.0442856 0.643487 0.806903
180 2 0.445818 0.861328 0.171808
181 2 0.200252 0.889812 0.696141
183 2 0.0570355 0.132373 0.809465
184 2 0.45942 0.366005 0.200035
186 2 0.295051 0.613438 0.311225
190 2 0.289905 0.106994 0.312125
193 3 0.175899 0.297134 0.774622
195 3 0.0725157 0.553051 0.706415
196 3 0.413416 0.95089 0.274567
197 3 0.174852 0.797506 0.779553
199 3 0.078737 0.0436139 0.723316
200 3 0.425527 0.454101 0.29783
202 3 0.32422 0.705573 0.217765
206 3 0.326233 0.200968 0.230127
209 3 0.116245 0.320431 0.800219
211 3 0.135088 0.574156 0.682236
212 3 0.348826 0.931101 0.293774
213 3 0.113944 0.819518 0.808234
215 3 0.136752 0.0654777 0.682994
216 3 0.366901 0.432197 0.330969
218 3 0.386284 0.685794 0.186004
222 3 0.386333 0.174203 0.205
225 3 0.216226 0.279953 0.61452
227 3 0.0305964 0.536819 0.867307
228 3 0.456915 0.969208 0.114747
229 3 0.219131 0.784219 0.618068
231 3 0.0384038 0.0323793 0.890616
232 3 0.468355 0.468199 0.133663
234 3 0.281377 0.718753 0.378157
238 3 0.289658 0.216293 0.392481
239 3 0.526555 0.0247415 0.878787
241 3 0.168255 0.236294 0.578383
243 3 0.0784528 0.494658 0.901868
244 3 0.409668 0.0123764 0.0743033
245 3 0.170333 0.743361 0.56986
247 3 0.0884371 0.991247 0.934386
248 3 0.414538 0.507534 0.0962713
250 3 0.330201 0.759995 0.422625
254 3 0.344948 0.255971 0.435032
257 3 0.297502 0.24625 0.781291
261 3 0.298769 0.74809 0.788703
266 3 0.204328 0.755704 0.205969
267 3 0.468916 0.490559 0.71255
268 3 0.0370662 0.00972801 0.294764
270 3 0.206107 0.254901 0.222334
271 3 0.453843 0.989335 0.70298
272 3 0.0597308 0.501751 0.305734
273 3 0.245943 0.210855 0.806118
276 3 0.488415 0.0359078 0.316145
277 3 0.246404 0.713518 0.811236
279 3 0.0156852 0.957974 0.708981
280 3 0.483831 0.541852 0.305933
282 3 0.262377 0.7898 0.19921
283 3 0.521865 0.454177 0.699885
286 3 0.261382 0.288349 0.199573
287 3 0.512495 0.955693 0.691137
288 3 0.0089944 0.538413 0.323307
289 3 0.374374 0.314386 0.802463
293 3 0.377319 0.814077 0.818877
298 3 0.125456 0.690817 0.169287
299 3 0.384867 0.553111 0.666792
300 3 0.114724 0.942327 0.323372
302 3 0.131992 0.190541 0.194364
303 3 0.374508 0.0522638 0.669211
304 3 0.130027 0.432065 0.337044
305 3 0.406096 0.353717 0.877944
309 3 0.40612 0.856807 0.884132
314 3 0.101306 0.649939 0.0947566
315 3 0.345086 0.59233 0.598045
316 3 0.138043 0.896978 0.382359
318 3 0.0986994 0.148797 0.127313
319 3 0.350838 0.0946862 0.599695
320 3 0.147353 0.386775 0.398642
321 3 0.29074 0.359997 0.655389
324 3 0.52975 0.891363 0.159084
325 3 0.289167 0.861678 0.675609
330 3 0.207517 0.644367 0.321706
331 3 0.454915 0.603223 0.820205
332 3 0.0297352 0.895789 0.170928
334 3 0.210131 0.142091 0.343157
335 3 0.456108 0.102213 0.819114
336 3 0.0471374 0.390806 0.180937
337 3 0.336331 0.405557 0.679609
341 3 0.327985 0.91028 0.693565
346 3 0.163296 0.598666 0.307838
347 3 0.411421 0.650265 0.799959
348 3 0.0727196 0.850427 0.187738
350 3 0.159503 0.100577 0.31878
351 3 0.41457 0.149787 0.797898
352 3 0.0915025 0.346654 0.211073
353 3 0.254825 0.360433 0.829913
356 3 0.491524 0.886813 0.32824
357 3 0.254952 0.860178 0.848969
360 3 0.509787 0.39021 0.360655
362 3 0.244439 0.639929 0.15795
363 3 0.497097 0.607491 0.655773
366 3 0.243582 0.137739 0.171667
367 3 0.501068 0.102158 0.659493
368 3 0.00113867 0.389946 0.343838
369 3 0.211336 0.393501 0.876406
371 3 0.038857 0.649625 0.615387
372 3 0.444404 0.852618 0.36405
373 3 0.212574 0.894003 0.895995
375 3 0.045282 0.136706 0.60775
376 3 0.463441 0.354416 0.396239
378 3 0.29181 0.606805 0.119349
382 3 0.277619 0.102425 0.117414
385 4 0.0562664 0.322075 0.733407
387 4 0.189463 0.582239 0.755621
388 4 0.302003 0.911309 0.221118
389 4 0.0595878 0.829425 0.737871
391 4 0.194508 0.0744711 0.744813
392 4 0.322032 0.408773 0.265216
394 4 0.43844 0.673042 0.256973
398 4 0.43844 0.164303 0.277499
401 4 0.120052 0.325462 0.896175
403 4 0.133355 0.585293 0.589774
404 4 0.342725 0.932112 0.383784
405 4 0.117783 0.82486 0.90302
407 4 0.130541 0.0663387 0.589366
408 4 0.35784 0.444963 0.416898
410 4 0.387227 0.686177 0.0937188
414 4 0.383941 0.165902 0.113232
417 4 0.192833 0.199225 0.561869
419 4 0.0542913 0.456579 0.919912
420 4 0.437364 0.0492319 0.0615595
421 4 0.192176 0.703314 0.58813
423 4 0.0605888 0.954614 0.953752
424 4 0.431745 0.547471 0.0786813
426 4 0.305858 0.797195 0.437111
430 4 0.320188 0.294564 0.438577
433 4 0.104263 0.24349 0.554366
435 4 0.141125 0.500054 0.915265
436 4 0.345931 0.00944054 0.0611767
437 4 0.109923 0.752037 0.513876
439 4 0.151432 0.997946 0.973342
440 4 0.351726 0.497309 0.0836209
442 4 0.395531 0.753565 0.451654
446 4 0.407414 0.245026 0.474201
449 4 0.249496 0.169963 0.775488
451 4 0.00318127 0.427268 0.726341
452 4 0.47346 0.0733462 0.272915
453 4 0.236278 0.675834 0.762125
455 4 0.0304763 0.921291 0.75691
456 4 0.475972 0.576027 0.247089
458 4 0.272356 0.825864 0.251954
459 4 0.518644 0.415742 0.738462
462 4 0.271895 0.325982 0.243161
463 4 0.511994 0.915541 0.718708
464 4 0.000881506 0.574914 0.272699
465 4 0.220956 0.218109 0.87708
467 4 0.0265546 0.471883 0.610437
468 4 0.472495 0.0265839 0.396253
469 4 0.231003 0.717424 0.892
471 4 0.0333282 0.964619 0.628865
472 4 0.467147 0.542348 0.385449
474 4 0.274011 0.792275 0.113335
478 4 0.281161 0.282382 0.123327
481 4 0.444448 0.382893 0.854695
485 4 0.453127 0.880786 0.865371
490 4 0.0701252 0.616796 0.118164
491 4 0.300046 0.611634 0.62837
492 4 0.186882 0.87604 0.363374
494 4 0.0560424 0.125323 0.156716
495 4 0.307347 0.121792 0.615234
496 4 0.192292 0.360422 0.382559
497 4 0.401455 0.351901 0.969421
501 4 0.393549 0.858356 0.970941
506 4 0.105679 0.653174 0.00301718
507 4 0.355147 0.598368 0.508821
508 4 0.125209 0.890098 0.467581
510 4 0.0985319 0.152138 0.0349698
511 4 0.362679 0.0927422 0.513267
512 4 0.133418 0.386699 0.484095
513 4 0.314487 0.434757 0.729355
517 4 0.312856 0.938288 0.750313
522 4 0.18064 0.566619 0.260954
523 4 0.433537 0.681624 0.756781
524 4 0.0549679 0.817415 0.234508
526 4 0.173977 0.0670176 0.273754
527 4 0.439498 0.181166 0.757949
528 4 0.0728298 0.314839 0.259293
529 4 0.372452 0.415522 0.622101
533 4 0.357629 0.919301 0.627591
538 4 0.134675 0.591049 0.375851
539 4 0.372166 0.656007 0.855286
540 4 0.113365 0.843906 0.13433
542 4 0.117196 0.0968245 0.370832
543 4 0.378199 0.15788 0.855767
544 4 0.133197 0.340188 0.158701
545 4 0.174512 0.422683 0.818554
547 4 0.0682309 0.681512 0.672693
548 4 0.438149 0.812389 0.330976
549 4 0.198877 0.933831 0.860615
551 4 0.0770939 0.17007 0.657242
552 4 0.439324 0.321047 0.341651
554 4 0.306157 0.568323 0.163528
558 4 0.290893 0.062849 0.15383
561 4 0.220645 0.394946 0.972026
563 4 0.0382423 0.646595 0.522218
564 4 0.42216 0.862182 0.438554
565 4 0.207372 0.884518 0.984142
567 4 0.0404102 0.132915 0.513949
568 4 0.455916 0.360055 0.484498
570 4 0.300479 0.612431 0.0336912
574 4 0.276522 0.110858 0.0265632
2 1 0.762503 0.6822 0.133049
3 1 0.996453 0.569021 0.618869
6 1 0.740283 0.185112 0.112939
7 1 0.994045 0.0555161 0.62377
9 1 0.756403 0.311401 0.885648
12 1 0.994598 0.941904 0.374729
13 1 0.745889 0.821402 0.855998
18 1 0.821678 0.686314 0.3207
22 1 0.814334 0.176812 0.306108
25 1 0.683645 0.320398 0.699598
27 1 0.567166 0.563162 0.812035
28 1 0.923419 0.941252 0.179416
29 1 0.681976 0.812978 0.670772
31 1 0.568607 0.0611717 0.824128
32 1 0.943414 0.438301 0.185739
34 1 0.719462 0.73153 0.310812
35 1 0.959222 0.524721 0.802762
38 1 0.718247 0.222391 0.317646