LAMMPS data file via write_data, version 15 Apr 2020, timestep = 80000

576 atoms
4 atom types

-5.7804043128189697e-01 1.8282040904281644e+01 xlo xhi
-3.3546789094841873e+00 2.8466678421184724e+01 ylo yhi
-4.9275305836652716e-01 1.3306079741066458e+01 zlo zhi
4.1801507129890808e-01 -1.7193959125362581e+00 5.6293738161350845e-02 xy xz yz

Masses

1 12.0107
2 1.00794
3 14.0067
4 15.9994

Atoms # full

16 1 1 5.4906283088652551e-02 1.7686731890254570e+01 1.0758374040916285e+01 5.1489741318209683e+00 0 0 0
19 1 1 7.0218741167896323e-02 -1.2823226059482629e-01 1.5872049643566266e+01 9.3408681205843997e+00 0 0 0
44 1 1 1.0151215359819793e-01 4.9696488418847706e-01 2.8024338352902504e+01 2.4767901441123525e+00 0 0 0
48 1 1 7.5783923498107850e-02 1.7816138530905516e+01 1.0588871997083329e+01 1.8951593646844542e+00 -1 0 0
112 1 2 1.9736777060671662e-01 -9.8418295679390067e-01 1.1129226380914108e+01 6.2131820289332085e+00 1 0 0
140 1 2 2.0183423303791090e-01 8.0450295918114700e-01 -2.9647861497892003e+00 2.5314411517244051e+00 0 0 0
144 1 2 2.1336429241933308e-01 1.7927254184963640e+01 1.0623058255847168e+01 8.5178960649049684e-01 -1 0 0
183 1 2 2.3003244401975315e-01 -9.2982731468683277e-01 5.8281793712896679e-01 1.0895937732881517e+01 0 0 0
195 1 3 -1.6292508964674338e-01 -4.8900520756866572e-01 1.4538196438576611e+01 8.6666105669322206e+00 0 0 0
231 1 3 -1.5766268832587857e-01 -9.4160502667097878e-01 -2.7522860066917980e+00 1.0741571738239234e+01 0 0 0
243 1 3 1.0333321669173690e-01 1.7736087147375643e+00 1.4823065555707709e+01 1.0645468003425680e+01 0 0 0
268 1 3 -1.6897425175592140e-01 1.8160278145236116e+01 2.8293457945387068e+01 3.2557394475449515e+00 -1 -1 0
272 1 3 -1.3097059830321550e-01 -5.2331713388893664e-01 1.1861307217574231e+01 2.4386687801200990e+00 0 0 0
279 1 3 1.0072028941221758e-01 3.1526935163770475e-01 2.7626843429656496e+01 7.8634305497615573e+00 0 0 0
336 1 3 -1.7201742203238751e-01 -8.1652274762636323e-01 8.1724149473687522e+00 2.9131520644774613e+00 0 0 0
368 1 3 -1.6447615395072673e-01 1.7681157823042859e+01 9.0118766739229166e+00 5.4241330495253113e+00 0 0 0
375 1 3 9.0833217993437798e-02 5.7969466009824910e-01 1.4637235623570151e+00 9.0980304713946722e+00 0 0 0
419 1 4 -6.6618621354158164e-02 2.2829096607409163e+00 1.4304229171860579e+01 1.1740579123550347e+01 0 0 0
451 1 4 -9.0700896502614925e-02 1.0627790356487923e+00 1.2602489257164368e+01 -2.2450921685995751e-01 0 0 1
467 1 4 -1.1140161634450627e-01 1.6105333536840966e+01 1.2733748556582531e+01 1.2799629145514078e+01 -1 0 0
494 1 4 -1.3412805753368109e-01 6.4645038596634241e-01 5.4240583209156723e-01 4.8734129591321018e+00 0 0 0
551 1 4 -9.5967731165579467e-02 4.2533582946761483e-01 2.4073707140414378e+00 9.9226624644624053e+00 0 0 0
275 1 3 7.1474887926693334e-02 -1.5103864138476404e+00 1.2969636597724358e+01 1.2657210591122883e+01 0 0 0
364 1 3 -1.3946698816421185e-01 -5.2062046195192047e-01 2.4371790941183839e+01 2.3579826933381773e+00 1 0 0
87 1 1 6.7414953213839321e-02 -9.8159697074403873e-01 -1.7659821066933024e-01 1.0153917198391031e+01 0 0 0
563 1 4 -1.0992987228003664e-01 1.5507034719207496e+01 1.5404784250484527e+01 6.3508277347078410e+00 -1 0 0
92 1 1 8.1864078191599271e-02 4.5781102825315867e-01 2.5051808093177215e+01 1.4729785005682605e+00 1 0 0
21 1 1 7.6967155321330680e-02 1.5100561104721086e+00 2.2805290894382338e+01 9.9874432466326475e+00 0 0 0
23 1 1 6.3131289976640706e-02 -7.1876449008971388e-02 -1.4890692201846818e+00 1.0434022423004052e+01 0 0 0
58 1 1 5.7566353703802024e-02 3.1253647980052341e+00 1.8496415412088162e+01 2.8407251303277246e+00 0 0 0
60 1 1 7.3029922515312443e-02 1.7775428013063717e+01 2.6623106920573441e+01 3.8738496456889662e+00 -1 0 0
62 1 1 5.2204184662492714e-02 2.6763437907795877e+00 3.4775469587312458e+00 2.6136316981098839e+00 0 0 0
64 1 1 6.2337917027894034e-02 -1.2270333700611369e-02 1.1191590886341052e+01 4.1646051183799573e+00 0 0 0
74 1 1 8.9279583284878269e-02 3.8959238109466505e+00 1.6544282806740277e+01 4.4695505147386418e+00 0 0 0
76 1 1 1.0931817215553721e-01 1.2861547011140608e+00 2.6690093718448693e+01 3.2764165605918429e+00 0 0 0
78 1 1 8.7991434341296595e-02 3.3584669394119011e+00 1.8956436800326131e+00 4.6256742765145757e+00 0 0 0
80 1 1 7.8818261575017687e-02 3.1565783601005259e-03 9.3855394254088473e+00 2.4529774556383734e+00 0 0 0
113 1 2 1.7387668058823821e-01 -1.0354200673802736e+00 6.8720564212415969e+00 1.0276252426341323e+01 0 0 0
115 1 2 2.1615546700481358e-01 6.3763693161001456e-01 1.6287159736630350e+01 8.7144463722851135e+00 0 0 0
117 1 2 2.1126405378638838e-01 5.6080867587615368e-01 2.3113878855571187e+01 1.0343871390839951e+01 0 0 0
119 1 2 2.3905766851932209e-01 6.1614969359825800e-01 -1.4135897997282920e+00 1.1247241110612379e+01 0 0 0
142 1 2 2.1712925905599753e-01 4.8071731920413541e+00 3.5499247244044332e+00 5.1519561999654222e+00 0 0 0
154 1 2 1.8159676495546401e-01 2.2852148390318279e+00 1.9120829003108163e+01 2.4719596561280035e+00 0 0 0
156 1 2 1.7508950106656490e-01 1.7072831799334743e+01 2.6645867328456930e+01 4.7221302518628931e+00 -1 0 0
158 1 2 2.1443935477811110e-01 1.8622087697207121e+00 4.1164014579946819e+00 2.2805123084346475e+00 0 0 0
160 1 2 2.1101637999128744e-01 4.6935598653321087e-01 1.1932930786089088e+01 4.7320100337956061e+00 0 0 0
170 1 2 2.0686243826810979e-01 3.6588387520525187e+00 1.5921916715967653e+01 5.3010658962835446e+00 0 0 0
172 1 2 1.7933784419354654e-01 2.1764076978793994e+00 2.7127525840678253e+01 3.6854176200219380e+00 0 0 0
174 1 2 2.0117561129691727e-01 3.3260462047975325e+00 1.7447741940711641e+00 5.7406413169378547e+00 0 0 0
176 1 2 2.1388255460626610e-01 7.1614228263331836e-01 9.0248813642324173e+00 1.6662283283485295e+00 0 0 0
181 1 2 2.1334128266097510e-01 2.1698942296223152e+00 2.4759999154810984e+01 1.0969322362084938e+01 0 0 0
193 1 3 -1.4581874507907611e-01 8.2770484947522416e-01 6.0003900011059059e+00 1.0814444315485655e+01 0 0 0
197 1 3 -1.4742380005832134e-01 1.9279856385128724e+00 2.1638465336456917e+01 1.0793299258955663e+01 0 0 0
199 1 3 -1.4347404259285734e-01 8.1341428027216400e-01 -1.6036031493793625e+00 9.0474086013111794e+00 0 0 0
209 1 3 7.6475575961865508e-02 -1.9387848489551551e-02 5.6003285089886052e+00 1.2096692066463195e+01 0 0 0
211 1 3 9.6659567962371365e-02 -2.2226399145350340e-01 1.4611024040769086e+01 7.0677384344424654e+00 0 0 0
213 1 3 8.6196534580840034e-02 1.3353807012514909e+00 2.1526308563796171e+01 1.2275972280839685e+01 0 0 0
215 1 3 9.1686956064056732e-02 2.2371201892841612e+00 -9.0550205010183982e-01 9.2873395585111709e+00 0 0 0
229 1 3 -1.6309115940633340e-01 1.4060669158267542e+00 2.2682081631626673e+01 8.4100734035242404e+00 0 0 0
241 1 3 1.0500703028848071e-01 -5.9774862738220014e-01 5.3184230205930376e+00 8.0506683647140527e+00 0 0 0
245 1 3 1.0914509813607624e-01 2.7124117396515701e-01 2.1666580320466132e+01 7.8913945221640693e+00 0 0 0
247 1 3 9.2331808777686444e-02 2.4978782583201786e-01 2.7714372475332631e+01 1.0931965619899831e+01 0 -1 0
298 1 3 -1.6083516455763064e-01 2.6561725372379623e+00 1.6892091313195607e+01 3.7322613303308776e+00 0 0 0
300 1 3 -1.8002226082014988e-01 2.8881069766946421e-01 2.6316277703531412e+01 4.3871331916760123e+00 0 0 0
302 1 3 -1.3709433602743884e-01 2.0886403617924505e+00 2.4403243541592925e+00 4.1488639287006821e+00 0 0 0
304 1 3 -1.5784928337114762e-01 8.3430309833563410e-01 1.0131048063886624e+01 3.5515154782914449e+00 0 0 0
314 1 3 1.0145262353220522e-01 2.0190446370207007e+00 1.5859801166044479e+01 2.7087781423833892e+00 0 0 0
316 1 3 1.0605571789788594e-01 6.0843970958567062e-01 2.4909844902698943e+01 5.1106236707373185e+00 0 0 0
318 1 3 1.0901398639313437e-01 9.5848850519569817e-01 1.3535965613179330e+00 3.8805701980227356e+00 0 0 0
320 1 3 1.1316384142119258e-01 1.9927869407049048e+00 9.3794568798556650e+00 4.4029724087209221e+00 0 0 0
332 1 3 -1.7655581637800233e-01 1.7176828163866833e+00 2.5678550284241631e+01 2.2456098836725471e+00 0 0 0
334 1 3 -1.7052713333523811e-01 3.9055615180308729e+00 4.5343899827307377e-01 4.0999278906821335e+00 0 0 0
346 1 3 1.0594281244983036e-01 4.5089705140900209e+00 1.4192217047236833e+01 3.4311258911764630e+00 0 0 0
348 1 3 9.8126384575512635e-02 2.7471912113314234e+00 2.4536306254223021e+01 2.7006803766753249e+00 0 0 0
350 1 3 9.6121621388882542e-02 3.0229705984298052e+00 -7.7271127530633876e-01 4.6371428380720072e+00 0 0 0
352 1 3 9.6532817721711212e-02 1.6894759519169322e-01 6.9409297327227701e+00 3.3410563514937386e+00 0 0 0
385 1 4 -1.2703004883065100e-01 -1.2372541398182046e+00 5.1654968848894693e+00 1.1998485685675256e+01 0 0 0
387 1 4 -1.3513294344796262e-01 4.8962011284914930e-01 1.5606688931054441e+01 6.6235601195210076e+00 0 0 0
389 1 4 -1.1528670625164243e-01 2.5252759800418856e-01 2.2172563756489971e+01 1.2569191509984091e+01 0 0 0
391 1 4 -1.2578814507677394e-01 2.4428001797227648e+00 -3.2764293254921339e-01 1.0413424291392605e+01 0 0 0
401 1 4 -1.2394159220622813e-01 5.1750210777836081e-01 5.7759173410267977e+00 1.3253749429891158e+01 0 0 0
403 1 4 -1.4392725286949115e-01 -3.9144296466431139e-01 1.3612061964746468e+01 6.3718245781074350e+00 0 0 0
405 1 4 -1.1371374808899762e-01 2.1532732594512320e+00 2.1072229727097032e+01 1.3173294111535576e+01 0 0 0
407 1 4 -9.5553784352244597e-02 3.2349205300639854e+00 -1.2294516929102857e+00 8.5369183754577520e+00 0 0 0
417 1 4 -9.1074808415780015e-02 -1.3850915662656609e+00 4.7058258752855693e+00 8.8382591955201661e+00 0 0 0
421 1 4 -1.1093357508703024e-01 -6.4190580794773244e-01 2.1237552204351104e+01 8.6312233705410186e+00 0 0 0
423 1 4 -1.3503393036860628e-01 -2.7932226696551199e-01 2.6643061459758002e+01 1.1405203092577434e+01 0 0 0
433 1 4 -6.7980226272883609e-02 -9.9594302831928383e-02 4.7287245016077577e+00 7.0369048418192408e+00 0 0 0
435 1 4 -1.0964868902595706e-01 2.4282933128805952e+00 1.5032399182565827e+01 9.5680042808670507e+00 0 0 -1
437 1 4 -9.8124687194063143e-02 4.5389926961765092e-01 2.1241857125767091e+01 6.6853180187634687e+00 0 0 0
439 1 4 -9.3563364540046753e-02 1.5546965200647176e+00 2.7700927162815830e+01 1.0793833633297535e+01 0 -1 -1
449 1 4 -9.9157527055469846e-02 4.8281552965559946e+00 6.0274715049611629e+00 7.5490473778900684e+00 0 0 0
455 1 4 -9.7965588574419893e-02 3.4814721127234649e-01 2.6373290591104229e+01 8.1204526408425686e+00 0 0 0
465 1 4 -1.2793637627813878e-01 3.2182976200363500e+00 5.1617506341276087e+00 6.2794357676177368e+00 0 0 0
471 1 4 -1.1865488090955928e-01 1.2366470277166379e+00 2.8140524249255122e+01 7.1149789340439451e+00 0 0 0
490 1 4 -9.0258832227275709e-02 1.4947663425991848e+00 1.4735337999915304e+01 3.2105231513924681e+00 0 0 0
492 1 4 -1.2210372909320916e-01 1.8018879603609599e+00 2.4674137274439964e+01 5.4632398565122182e+00 0 0 0
496 1 4 -1.0415450074023974e-01 3.0941191351866340e+00 9.1827994708954197e+00 3.8218314139134897e+00 0 0 0
506 1 4 -1.5125800333217421e-01 1.7725445675430134e+00 1.6196971695154218e+01 1.5179628729088481e+00 0 0 0
508 1 4 -9.3372600883268764e-02 -3.4066794023128288e-01 2.4068179056649448e+01 5.2127632251082181e+00 0 0 0
510 1 4 -1.2025713109547397e-01 1.7401488549971789e-01 1.4098040195325163e+00 2.8656225670244173e+00 0 0 0
512 1 4 -1.8741119528442396e-01 1.8487802303492811e+00 9.2707216745395478e+00 5.6608740150855166e+00 0 0 0
522 1 4 -7.4109939166632249e-02 4.8930298876064384e+00 1.3705712875828278e+01 2.3446810671355331e+00 0 0 0
524 1 4 -9.9176101006057976e-02 2.8253746937375381e+00 2.3444774157626561e+01 1.9897348954872385e+00 0 0 0
526 1 4 -1.2960108296100706e-01 2.2656280952820205e+00 -1.3983676309542885e+00 3.8218422924554716e+00 0 0 0
528 1 4 -1.0955988633572425e-01 2.6070800805647565e-01 6.5750647062048255e+00 4.5858643676273996e+00 0 0 0
538 1 4 -9.6168388333543645e-02 3.8038909963477714e+00 1.3566852871316085e+01 4.2725739454908860e+00 0 0 0
540 1 4 -1.4125488278826093e-01 3.4415734006292578e+00 2.4797246844122000e+01 3.7206028126448221e+00 0 0 0
542 1 4 -1.0802755969623462e-01 3.3359490896934476e+00 -1.2705158627555027e+00 5.7964670056446357e+00 0 0 0
544 1 4 -1.2232216988275732e-01 6.3230675970678552e-01 6.2000563688408956e+00 2.4162402726356054e+00 0 0 0
547 1 4 -1.2166496933929162e-01 1.6513334257206346e+01 1.7478130546435196e+01 6.4829028546128376e+00 -1 0 0
549 1 4 -1.3136574648950528e-01 2.7625254435396105e+00 2.4475633483280461e+01 1.3166161019186969e+01 0 0 0
567 1 4 -1.0223239055011060e-01 1.3800382860028757e+00 1.6037551758345039e+00 8.0696939137629968e+00 0 0 0
1 1 1 6.6203560136264522e-02 2.2269737606792415e+00 6.9217033915271458e+00 1.1160359138668010e+01 0 0 0
5 1 1 5.0927885967532206e-02 3.7444726997941897e+00 2.1833945249997896e+01 1.0841952954526402e+01 0 0 0
10 1 1 5.6133308265013414e-02 4.1021083304841310e+00 1.8201814474795896e+01 1.7012017231101089e+00 0 0 0
14 1 1 7.2847919923785961e-02 3.1885950371285174e+00 2.6120450094466490e+00 1.4513117740589994e+00 0 0 0
17 1 1 9.3946722374415356e-02 -1.3853203314395879e-02 6.9577069123636495e+00 9.9399316190723006e+00 0 0 0
24 1 1 8.4617457874292007e-02 7.0535996757736497e+00 9.3896849904466162e+00 3.8922156914791168e+00 0 0 0
26 1 1 8.1558989917647318e-02 6.2935703432886498e+00 1.7841776350186990e+01 3.1597336369800000e+00 0 0 0
30 1 1 9.1175154563258129e-02 5.3439459987608542e+00 1.7513989779296741e+00 2.3561846336619596e+00 0 0 0
33 1 1 7.7184423265461197e-02 1.5339999782051548e+00 7.0100551447415427e+00 7.9746717784896353e+00 0 0 0
37 1 1 7.9325921284347983e-02 2.8369215616558834e+00 2.2452522448949040e+01 7.8936657967475812e+00 0 0 0
42 1 1 9.5122290356835101e-02 4.4810027814102078e+00 1.8141346740295170e+01 4.9226745878445799e+00 0 0 0
46 1 1 8.7811244293509019e-02 4.4784228914679094e+00 3.0921421096895783e+00 4.2256524893839860e+00 0 0 0
49 1 1 7.3741144753614360e-02 3.2134369083199390e+00 6.8508169090074507e+00 9.9614064681960706e+00 0 0 0
53 1 1 5.9808833686516689e-02 4.4599661674907880e+00 2.1465844574031976e+01 9.5079117691544113e+00 0 0 0
63 1 1 7.3800352628478422e-02 6.5908019722260134e+00 -6.3142546284239254e-01 8.7500663397768719e+00 0 0 0
65 1 1 8.3626391013607942e-02 2.1457861768342870e+00 8.4444866357459034e+00 8.3952641777038579e+00 0 0 0
69 1 1 8.9640022795331620e-02 3.8885657847606518e+00 2.3710914910136196e+01 8.1372346491198861e+00 0 0 0
79 1 1 9.1828555540268114e-02 6.4568412949914604e+00 1.2075929551941238e+00 1.0471682179959448e+01 0 0 0
81 1 1 9.9436720342198845e-02 5.5773778119465667e-01 8.5496096198628404e+00 1.0288630279178388e+01 0 0 0
85 1 1 8.5783471568394276e-02 2.6640660098713460e+00 2.3986949269784034e+01 1.0296540620951269e+01 0 0 0
90 1 1 8.6830234069963000e-02 5.6306540589408653e+00 1.6420241119317154e+01 2.6709595858128297e+00 0 0 0
94 1 1 8.8913483233342042e-02 4.1355647272826435e+00 6.2234748904822457e-01 2.5833880846974782e+00 0 0 0
97 1 2 1.9287688118970148e-01 2.7383707026861375e+00 6.5610470417365523e+00 1.2042601336912796e+01 0 0 0
101 1 2 2.2100587886424550e-01 4.2104740625276920e+00 2.1254046767069596e+01 1.1619488831958741e+01 0 0 0
106 1 2 1.9837866848282931e-01 3.7443382650181958e+00 1.8609249074319500e+01 7.2056780403596710e-01 0 0 0
110 1 2 1.8361294215451773e-01 2.6472642735481564e+00 3.0035761597885200e+00 5.5197350467896822e-01 0 0 0
116 1 2 1.7728240745704099e-01 5.3906035735738040e+00 2.5994287162438688e+01 3.2500742841855530e+00 0 0 0
120 1 2 2.1717154050078996e-01 6.0156610372308661e+00 9.1124485810062215e+00 4.0321235476648418e+00 0 0 0
122 1 2 1.9626743093125992e-01 7.3508835617989448e+00 1.7672772493324651e+01 3.1278030013791951e+00 0 0 0
126 1 2 1.9818914662376458e-01 6.3170599785799375e+00 1.2524622965251115e+00 2.0450913091416223e+00 0 0 0
129 1 2 2.0394560984734791e-01 1.5324640983281470e+00 7.0415655131412969e+00 6.9013065992732194e+00 0 0 0
133 1 2 2.1965415716153361e-01 2.6570859338928932e+00 2.2269613677732920e+01 6.7957636959379384e+00 0 0 0
138 1 2 1.9639833147048755e-01 4.3560589452565459e+00 1.8228306053730833e+01 5.9946280147151398e+00 0 0 0
145 1 2 2.0114470568307938e-01 4.1902781259301873e+00 6.4473580111121791e+00 1.0304826245270345e+01 0 0 0
149 1 2 2.2107849492170581e-01 5.3157981542559760e+00 2.0776303375517713e+01 9.5766480830343887e+00 0 0 0
155 1 2 2.0764061680722271e-01 5.8260147860640394e+00 1.3155558351171175e+01 9.1110172740460413e+00 0 0 0
159 1 2 2.1062591868267766e-01 6.0686146354833452e+00 -1.2801831249631106e+00 8.0802382870041036e+00 0 0 0
161 1 2 2.2428428398298655e-01 2.5812812525253408e+00 9.0020258580913648e+00 7.4774682475260619e+00 0 0 0
165 1 2 1.9528568987124317e-01 4.1888070287360790e+00 2.4188249746453970e+01 7.1908907842871193e+00 0 0 0
171 1 2 2.1241598943563827e-01 6.2887824749166841e+00 1.5987254803826810e+01 1.1976225466107191e+01 0 0 0
175 1 2 1.9935173396325984e-01 5.6015919092381043e+00 1.5925479239974090e+00 1.1003040154374467e+01 0 0 0
177 1 2 1.8577686629502091e-01 -3.4045371415846026e-01 9.0261731006407100e+00 1.0604389192721214e+01 0 0 0
186 1 2 2.0968496551654334e-01 6.4798627475203494e+00 1.5786981026049903e+01 2.3538350436000841e+00 0 0 0
190 1 2 2.0380299601944427e-01 4.6651897460000207e+00 -2.4780305087516163e-01 2.1885083653316872e+00 0 0 0
202 1 3 -1.1836530042783648e-01 5.8386213475815669e+00 1.8863909620071048e+01 2.1674710180074670e+00 0 0 0
206 1 3 -1.5579840053401497e-01 4.7401602024826719e+00 2.7051647925651290e+00 1.2613874043701190e+00 0 0 0
212 1 3 9.0489655350644918e-02 6.4189360259582902e+00 2.8085250147462759e+01 4.8501336808938120e+00 0 0 0
216 1 3 9.0972410709120669e-02 6.3906153401320420e+00 1.0438754408681264e+01 6.0895228083419415e+00 0 0 0
218 1 3 9.0345557528773879e-02 6.7766448787890807e+00 1.8855112601060817e+01 8.5509274335471885e-01 0 0 0
222 1 3 8.7722216133997596e-02 5.1624057942385519e+00 2.2437526072315324e+00 -2.4557955325607872e-01 0 0 0
225 1 3 -1.6379937530840538e-01 -3.2786290718383349e-02 6.7925910335382031e+00 8.4584357502497056e+00 0 0 0
234 1 3 -1.7718612291805710e-01 5.9824041279473406e+00 1.8084269572641745e+01 4.7285162459290833e+00 0 0 0
238 1 3 -1.7813346825466586e-01 5.7536129658398902e+00 2.3424002212546320e+00 3.6812471636423210e+00 0 0 0
244 1 3 1.0198415848669978e-01 4.7625114311874288e+00 2.7807009337475442e+01 8.5875379045696065e-01 0 0 0
248 1 3 1.0259943315910190e-01 6.2132236297203667e+00 1.0521087336946415e+01 1.6788235520629389e+00 0 0 0
250 1 3 1.0126592156156068e-01 6.7212902930198908e+00 1.9360763983016021e+01 5.2916141689911900e+00 0 0 0
254 1 3 9.0649329556127131e-02 7.0129627088282049e+00 3.3822943915753498e+00 3.6738404363561292e+00 0 0 0
257 1 3 -1.2635953432744512e-01 2.5178394257337722e+00 5.9889815762585776e+00 8.5396380581543774e+00 0 0 0
261 1 3 -1.7922934570265067e-01 3.5447599046492821e+00 2.1135420206682895e+01 8.4122202292501704e+00 0 0 0
266 1 3 -1.6509914404594409e-01 3.6132806609740644e+00 1.9201336725585634e+01 4.2019716439378048e+00 0 0 0
270 1 3 -1.5742137262147285e-01 3.7531277083435932e+00 4.1641592202891911e+00 3.4184155464299910e+00 0 0 0
273 1 3 7.9461242791836459e-02 3.6042882780962926e+00 5.6733373421343707e+00 7.4118008031379654e+00 0 0 0
277 1 3 9.8755316233076484e-02 2.7268695800407219e+00 1.9771929389188784e+01 8.5090908582861573e+00 0 0 0
282 1 3 1.0310866079127974e-01 4.2190524332628367e+00 2.0659100916863061e+01 3.9710354072714482e+00 0 0 0
286 1 3 1.0552322061124808e-01 4.6292506835906835e+00 5.2721543331344112e+00 2.6282169717571504e+00 0 0 0
289 1 3 -1.6959687475707391e-01 3.4621267004139344e+00 8.1335839046837872e+00 9.2415971076817947e+00 0 0 0
293 1 3 -1.5941834890763432e-01 5.1002585887845484e+00 2.3080456053860573e+01 8.6254426472547294e+00 0 0 0
299 1 3 -1.6983904506214287e-01 6.0362160619802010e+00 1.5019126734386122e+01 1.0174665998613484e+01 0 0 0
303 1 3 -1.7243155196798182e-01 5.8744120200445895e+00 6.0946498711813524e-01 9.1346881559637758e+00 0 0 0
305 1 3 1.1035243680709125e-01 4.1915809048666919e+00 9.2591874330281261e+00 1.0059515347830057e+01 0 0 0
309 1 3 9.8772522050027053e-02 6.2330453155151568e+00 2.3887409467211064e+01 9.3801056197535146e+00 0 0 0
315 1 3 1.0654771658416698e-01 5.4906253336478583e+00 1.5974943700034844e+01 9.0264579502434970e+00 0 0 0
319 1 3 1.0042148406239587e-01 5.5169013701770435e+00 1.7224260584401616e+00 8.0857171897616560e+00 0 0 0
321 1 3 -1.7732792945540576e-01 9.3635825570026854e-01 9.2126077491979608e+00 8.9555293626015846e+00 0 0 0
325 1 3 -1.6094762661506684e-01 3.0901049407783940e+00 2.4758110632328311e+01 9.0854951625676499e+00 0 0 0
330 1 3 -1.8266376405586249e-01 5.0099870614363500e+00 1.5686616856432218e+01 3.8567678171077384e+00 0 0 0
337 1 3 9.3549545560368791e-02 1.1109750232921505e+00 1.0792709480534532e+01 9.0455235472899176e+00 0 0 0
341 1 3 1.0397954217998416e-01 4.1025023297473560e+00 2.5950812233277674e+01 9.5051416030386058e+00 0 0 0
347 1 3 9.5573958872528980e-02 7.5835702644781433e+00 1.7894824702956861e+01 1.0453854151840840e+01 0 0 0
353 1 3 -1.5051964759170450e-01 1.6244711770033233e+00 8.3133649669147882e+00 1.1402200069106808e+01 0 0 0
357 1 3 -1.5930856165554377e-01 3.8241065551236093e+00 2.3357096418347915e+01 1.1223633719761121e+01 0 0 0
362 1 3 -1.5074593910371320e-01 4.6184929515617306e+00 1.6785402605029013e+01 1.4909957777975378e+00 0 0 0
366 1 3 -1.4404957592617373e-01 2.9025302370161778e+00 9.9756889555757589e-01 1.7155379422091239e+00 0 0 0
369 1 3 1.0265193585058560e-01 1.1684222107130502e+00 8.5100588415473037e+00 1.2944465958442230e+01 0 0 0
371 1 3 7.8125629024420495e-02 1.6102330338275365e+01 1.6361301687517340e+01 7.0401439081615704e+00 -1 0 0
373 1 3 7.4496068195340742e-02 3.5953753071150727e+00 2.3610477955877279e+01 1.2791803285859366e+01 0 0 0
378 1 3 9.1423266438326600e-02 5.3382071837001623e+00 1.6575905259842401e+01 5.8541424475840653e-02 0 0 0
382 1 3 8.9384725870527787e-02 2.8980112101643791e+00 1.0942239009317234e-01 3.7826473398406035e-01 0 0 0
388 1 4 -1.0364791258136095e-01 5.4585651061748255e+00 2.7519565983859096e+01 5.4753069885782928e+00 0 0 0
392 1 4 -1.2791432072005524e-01 5.6804450407855072e+00 9.4161148433106145e+00 6.3659042557214613e+00 0 0 0
394 1 4 -1.3153252042253660e-01 8.0223432889446595e+00 1.8569539808327896e+01 9.4362099279991551e-01 0 0 0
398 1 4 -1.4845546806922272e-01 5.8240201752784291e+00 1.1817859023013924e+00 -4.2515685643403023e-01 0 0 0
404 1 4 -1.2899957545915289e-01 6.8072970487512094e+00 -2.9200087588985708e+00 5.4969271304182090e+00 0 1 0
408 1 4 -1.3401897661833934e-01 6.3616368569506783e+00 1.1480695435173875e+01 6.8552210527866571e+00 0 0 0
410 1 4 -1.0950617011536648e-01 6.1713591389819307e+00 1.9157857228996718e+01 -2.5389125948820290e-01 0 0 0
414 1 4 -1.1944099336995549e-01 3.0686038370876103e+00 3.0400002013397245e+00 1.2592358619515419e+01 0 0 -1
420 1 4 -9.3328813970608937e-02 4.0827378261716802e+00 2.7875201384080697e+01 -2.2542981831183206e-01 0 -1 0
424 1 4 -8.5311812995718925e-02 6.4995569114036718e+00 1.0891025188779459e+01 4.9463751152673674e-01 0 0 0
426 1 4 -1.0211091084508291e-01 6.4595789329602358e+00 1.9918791896391923e+01 6.4498539020840653e+00 0 0 0
430 1 4 -7.5576224198501921e-02 7.8017848070883620e+00 3.4236484383049950e+00 4.6602324986492203e+00 0 0 0
436 1 4 -1.2199262061889296e-01 4.2868612325210576e+00 2.8323956556424953e+01 1.9585977517566802e+00 0 0 1
440 1 4 -7.1075841793387620e-02 5.0954884100426598e+00 1.0818744108939590e+01 2.2849429579168357e+00 0 0 1
446 1 4 -1.0013184269012862e-01 7.1731212842685821e+00 4.0386638192865787e+00 2.5927822248260495e+00 0 0 0
453 1 4 -1.4138200330300635e-01 2.6562704457551174e+00 1.9017062125426861e+01 7.4912646311572484e+00 0 0 0
458 1 4 -1.2626450732224603e-01 3.9458582990322091e+00 2.1602172589671333e+01 4.8266240289136864e+00 0 0 0
462 1 4 -1.2322268598698155e-01 5.4876920334437864e+00 5.9209237559397163e+00 3.3233834187502751e+00 0 0 0
469 1 4 -1.1701637023513983e-01 2.5112402459411722e+00 1.9240525968827420e+01 9.6601695970101957e+00 0 0 0
474 1 4 -8.5622133163592198e-02 4.9530430094195523e+00 2.0895874163571520e+01 2.9494541810155952e+00 0 0 0
478 1 4 -1.1138526554680112e-01 4.1120882584878906e+00 5.7954217242742487e+00 1.6011345678140412e+00 0 0 0
491 1 4 -9.8152028275542619e-02 5.0045428213799941e+00 1.7144688324281915e+01 9.3401972528119153e+00 0 0 0
495 1 4 -1.0803613179900928e-01 4.7918620521477067e+00 2.7347772255960550e+00 8.3892996033309046e+00 0 0 0
497 1 4 -1.1238201853346770e-01 4.7698215826951396e+00 8.8617850801012139e+00 1.1142403542235854e+01 0 0 0
507 1 4 -1.4212589634599301e-01 5.4051214146059907e+00 1.5594253276362254e+01 7.8268534843555218e+00 0 0 0
511 1 4 -1.4543648055781086e-01 5.8141413736045404e+00 1.4688661909014602e+00 6.8724971806599715e+00 0 0 0
513 1 4 -9.2937373315044911e-02 9.1733755443087728e-01 1.1348480453670245e+01 1.0174898525768782e+01 0 0 0
517 1 4 -1.1949954405873628e-01 4.3451657642107371e+00 2.6090891887877369e+01 1.0791568288399258e+01 0 0 0
523 1 4 -9.5696479346419006e-02 8.1310567959148159e+00 1.8426572784844559e+01 9.4030790987233601e+00 0 0 0
529 1 4 -1.1813056666223148e-01 1.3532151974455049e+00 1.1496839671289324e+01 7.9907932867265119e+00 0 0 0
533 1 4 -6.5642643649908086e-02 3.9898696249886849e+00 2.6967060180722981e+01 8.7458211750178450e+00 0 0 0
539 1 4 -1.0537084157231331e-01 6.8269937165322165e+00 1.8531784579846331e+01 1.1267410590611931e+01 0 0 0
543 1 4 -1.1756935212295902e-01 6.0346819641577003e+00 4.2051991548988870e+00 1.0620316688538356e+01 0 0 0
545 1 4 -1.3136031493985892e-01 7.2202903943494601e-02 9.1059486469553423e+00 1.3198040040900981e+01 0 0 0
554 1 4 -1.3736171276126552e-01 6.2239711368947406e+00 1.5678804275184264e+01 2.3786168553400211e-02 0 0 0
558 1 4 -1.0905139514918166e-01 3.4786952645092004e+00 -1.0127635210865162e+00 4.3022631843280179e-01 0 0 0
561 1 4 -9.1568499994291966e-02 3.6431199273443804e+00 8.0853809776811261e+00 1.2032485023477946e-01 0 0 1
565 1 4 -9.4529860288841500e-02 5.9921711015161208e+00 2.2832231989772943e+01 -1.2880008243399099e-01 0 0 1
570 1 4 -1.1110688533571869e-01 2.9571489380850329e+00 1.7038410860740349e+01 1.2823952181486160e+01 0 0 -1
574 1 4 -1.3273376555157293e-01 1.9026986692044621e+00 3.9020312624014863e-01 -4.5746620744421829e-01 0 0 0
7 1 1 6.5833612693394494e-02 1.0806781994257664e-02 -1.0153641187270979e+00 7.9821311583490617e+00 0 0 0
12 1 1 6.3100997676516377e-02 1.7162859279550187e+01 2.5680774880131757e+01 2.7684035834753113e+00 0 0 0
103 1 2 2.0775916762797184e-01 6.2899466017023986e-01 -6.2349734717039151e-01 7.1616006334950848e+00 0 0 0
576 1 4 -1.5701637148087738e-01 1.7214663192932342e+01 9.0404373301312813e+00 7.8913009963928138e+00 0 0 0
227 1 3 -1.6769724611562697e-01 5.2836579723757215e-01 1.5825120676513626e+01 1.0805261959906645e+01 0 0 0
4 1 1 5.4657500908083446e-02 8.5266734074161672e+00 2.7626560594681649e+01 3.1156449754964024e+00 0 0 0
8 1 1 6.3963272147019884e-02 9.0729233385383541e+00 1.0288819949930541e+01 5.1524461806575070e+00 0 0 0
11 1 1 4.4219581579999410e-02 7.8046195698934060e+00 1.3748219511426131e+01 8.7790069187788653e+00 0 0 0
15 1 1 5.2900736079672737e-02 8.0188021898460988e+00 -3.6704417193600625e-01 8.1896868246251806e+00 0 0 0
20 1 1 8.3695701282617843e-02 6.2501167363893195e+00 2.6496053585925900e+01 2.7275502476353082e+00 0 0 0
36 1 1 8.1103682990966680e-02 7.1070608047074746e+00 2.6949378360418741e+01 3.6138769485441580e-01 0 0 0
43 1 1 9.3445187835277541e-02 7.6546606048796670e+00 1.4007083588329740e+01 1.1935743359994710e+01 0 0 0
47 1 1 8.0984821310688848e-02 6.9740987758318731e+00 -2.0190086062513002e-01 1.1240387696834514e+01 0 0 0
59 1 1 7.9115813753174932e-02 6.5764181407622644e+00 1.3687866052045200e+01 9.7141692920459874e+00 0 0 0
75 1 1 7.3977473119268347e-02 6.9773285054685994e+00 1.5480407508680278e+01 1.1317670684154720e+01 0 0 0
83 1 1 9.6531317840229947e-02 -1.4549068059078623e+00 1.6896505768347559e+01 9.2860286800179423e+00 0 0 0
84 1 1 6.9175134738598779e-02 7.4197722991212718e+00 2.5413606126006783e+01 2.8820080685427167e+00 0 0 0
88 1 1 7.4396148338469942e-02 8.0586569027466091e+00 8.0965058310004512e+00 4.3645917285914075e+00 0 0 0
91 1 1 9.0357226856782602e-02 9.0227681451666868e+00 1.5798996685650410e+01 9.7872037867861579e+00 0 0 0
95 1 1 9.4515684069142250e-02 8.6508471343957076e+00 1.6577795264922770e+00 9.4892911436316538e+00 0 0 0
99 1 2 2.0449369746400936e-01 1.6375768596204715e+01 1.3777101274976511e+01 8.1512613892724239e+00 -1 0 0
100 1 2 1.9652031386128704e-01 9.0210899526070030e+00 2.8401823905225164e+01 3.6872589608340034e+00 0 0 0
104 1 2 2.0533072875764008e-01 9.4126590501610714e+00 1.0861059617170778e+01 6.0346055216148384e+00 0 0 0
107 1 2 2.0769358975397925e-01 7.6367358297589432e+00 1.3302278977407083e+01 7.8345661341274520e+00 0 0 0
111 1 2 1.9731844829189549e-01 8.2354222375951647e+00 -7.9135332093626864e-01 7.2139392381977512e+00 0 0 0
139 1 2 2.0139167297235722e-01 7.3402099758738473e+00 1.3944785601312576e+01 1.2967011501282496e+01 0 0 0
143 1 2 1.9730660095498154e-01 6.5474413183374818e+00 -3.7549825356221200e-01 1.2254768947282759e+01 0 1 0
179 1 2 1.9664745999113126e-01 -1.2093309278188609e+00 1.7788843792045292e+01 8.6401913215648491e+00 0 0 0
180 1 2 2.0670385490453219e-01 6.9985956763730215e+00 2.4669843396195283e+01 3.5778473110063223e+00 0 0 0
184 1 2 2.3804625538940871e-01 7.5244359465168609e+00 7.3024168377761924e+00 4.9480710971976487e+00 0 0 0
196 1 3 -1.4046167014242342e-01 6.6913735979925706e+00 2.7779549582607828e+01 3.3256445378436732e+00 0 0 0
200 1 3 -1.4927889903706545e-01 7.3500092342476968e+00 1.0527474417317967e+01 4.7889796669331144e+00 0 0 0
228 1 3 -1.5771088222848104e-01 5.8223577584435802e+00 2.6659876572451481e+01 1.0994420029581304e+00 0 0 0
232 1 3 -1.7437423467945617e-01 7.1987285340161655e+00 9.4348457486340536e+00 2.3118254289700562e+00 0 0 0
239 1 3 -1.7232392403588034e-01 8.5529429302665410e+00 2.5729965151953582e-02 1.1609364572423512e+01 0 0 0
267 1 3 -1.5293004659055540e-01 6.9668070899489098e+00 1.2881601903527878e+01 1.1214369127715454e+01 0 0 0