ITEM: TIMESTEP
0
ITEM: NUMBER OF ATOMS
448
ITEM: BOX BOUNDS xy xz yz pp pp pp
-2.4186686450000000e-01 1.3879200000000001e+01 8.1284706647000001e-16
0.0000000000000000e+00 1.3274800000000003e+01 -2.4186686450000000e-01
0.0000000000000000e+00 2.2679910358299999e+01 1.4036330231000001e-15
ITEM: ATOMS id type xs ys zs
1 1 0.343944 0.120978 0.264308
2 2 0.237907 0.127714 0.258688
3 3 0.217157 0.154364 0.213839
4 3 0.194088 0.0933052 0.293721
5 2 0.410842 0.148371 0.217556
6 3 0.49076 0.144321 0.230054
7 3 0.372695 0.17452 0.177477
8 1 0.381997 0.0875077 0.317723
9 2 0.312576 0.0658777 0.36763
10 4 0.346693 0.0773342 0.421393
11 4 0.22608 0.0252472 0.359881
12 2 0.488766 0.0746912 0.325279
13 4 0.518895 0.0322035 0.375117
14 4 0.552336 0.104693 0.286014
15 1 0.406056 0.370978 0.485692
16 2 0.512093 0.377714 0.491312
17 3 0.532843 0.404364 0.536161
18 3 0.555912 0.343305 0.456279
19 2 0.339158 0.398371 0.532444
20 3 0.25924 0.394321 0.519946
21 3 0.377305 0.42452 0.572523
22 1 0.368003 0.337508 0.432277
23 2 0.437424 0.315878 0.38237
24 4 0.403307 0.327334 0.328607
25 4 0.52392 0.275247 0.390119
26 2 0.261234 0.324691 0.424721
27 4 0.231105 0.282204 0.374883
28 4 0.197664 0.354693 0.463986
29 1 0.156056 0.379022 0.235692
30 2 0.262093 0.372286 0.241312
31 3 0.282843 0.345636 0.286161
32 3 0.305912 0.406695 0.206279
33 2 0.0891582 0.35163 0.282444
34 3 0.00924032 0.355679 0.269946
35 3 0.127305 0.32548 0.322523
36 1 0.118004 0.412492 0.182277
37 2 0.187424 0.434122 0.132371
38 4 0.153307 0.422666 0.0786072
39 4 0.27392 0.474753 0.140119
40 2 0.0112336 0.425309 0.174721
41 4 0.981105 0.467796 0.124883
42 4 0.947663 0.395307 0.213986
43 1 0.0939443 0.129022 0.014308
44 2 0.987906 0.122286 0.00868762
45 3 0.967157 0.0956358 0.963839
46 3 0.944088 0.156695 0.0437212
47 2 0.160842 0.101629 0.967556
48 3 0.24076 0.105679 0.980054
49 3 0.122694 0.0754795 0.927477
50 1 0.131997 0.162492 0.0677232
51 2 0.0625762 0.184122 0.11763
52 4 0.0966927 0.172666 0.171393
53 4 0.97608 0.224753 0.109881
54 2 0.238766 0.175309 0.075279
55 4 0.268895 0.217796 0.125117
56 4 0.302336 0.145307 0.0360142
57 1 0.843944 0.120978 0.264308
58 2 0.737907 0.127714 0.258688
59 3 0.717157 0.154364 0.213839
60 3 0.694088 0.0933052 0.293721
61 2 0.910842 0.148371 0.217556
62 3 0.99076 0.144321 0.230054
63 3 0.872695 0.17452 0.177477
64 1 0.881997 0.0875077 0.317723
65 2 0.812576 0.0658777 0.36763
66 4 0.846693 0.0773342 0.421393
67 4 0.72608 0.0252472 0.359881
68 2 0.988766 0.0746912 0.325279
69 4 0.0188951 0.0322035 0.375117
70 4 0.0523365 0.104693 0.286014
71 1 0.906056 0.370978 0.485692
72 2 0.0120937 0.377714 0.491312
73 3 0.0328434 0.404364 0.536161
74 3 0.0559117 0.343305 0.456279
75 2 0.839158 0.398371 0.532444
76 3 0.75924 0.394321 0.519946
77 3 0.877306 0.42452 0.572523
78 1 0.868003 0.337508 0.432277
79 2 0.937424 0.315878 0.38237
80 4 0.903307 0.327334 0.328607
81 4 0.0239203 0.275247 0.390119
82 2 0.761234 0.324691 0.424721
83 4 0.731105 0.282204 0.374883
84 4 0.697664 0.354693 0.463986
85 1 0.656056 0.379022 0.235692
86 2 0.762093 0.372286 0.241312
87 3 0.782843 0.345636 0.286161
88 3 0.805912 0.406695 0.206279
89 2 0.589158 0.35163 0.282444
90 3 0.50924 0.355679 0.269946
91 3 0.627305 0.325479 0.322523
92 1 0.618003 0.412492 0.182277
93 2 0.687424 0.434122 0.132371
94 4 0.653308 0.422666 0.0786071
95 4 0.77392 0.474753 0.140119
96 2 0.511234 0.425309 0.174721
97 4 0.481105 0.467796 0.124883
98 4 0.447664 0.395307 0.213986
99 1 0.593944 0.129022 0.014308
100 2 0.487906 0.122286 0.00868768
101 3 0.467157 0.0956358 0.963839
102 3 0.444088 0.156695 0.0437212
103 2 0.660842 0.101629 0.967556
104 3 0.74076 0.105679 0.980054
105 3 0.622695 0.0754796 0.927477
106 1 0.631997 0.162492 0.0677231
107 2 0.562576 0.184122 0.11763
108 4 0.596693 0.172666 0.171393
109 4 0.47608 0.224753 0.109881
110 2 0.738766 0.175309 0.075279
111 4 0.768895 0.217796 0.125117
112 4 0.802336 0.145307 0.0360142
113 1 0.343944 0.620978 0.264308
114 2 0.237907 0.627714 0.258688
115 3 0.217157 0.654364 0.213839
116 3 0.194088 0.593305 0.293721
117 2 0.410842 0.648371 0.217556
118 3 0.49076 0.644321 0.230054
119 3 0.372695 0.67452 0.177477
120 1 0.381997 0.587508 0.317723
121 2 0.312576 0.565878 0.36763
122 4 0.346693 0.577334 0.421393
123 4 0.22608 0.525247 0.359881
124 2 0.488766 0.574691 0.325279
125 4 0.518895 0.532204 0.375117
126 4 0.552336 0.604693 0.286014
127 1 0.406056 0.870978 0.485692
128 2 0.512093 0.877714 0.491312
129 3 0.532843 0.904364 0.536161
130 3 0.555912 0.843305 0.456279
131 2 0.339158 0.898371 0.532444
132 3 0.25924 0.894321 0.519946
133 3 0.377305 0.92452 0.572523
134 1 0.368003 0.837508 0.432277
135 2 0.437424 0.815878 0.38237
136 4 0.403307 0.827334 0.328607
137 4 0.52392 0.775247 0.390119
138 2 0.261234 0.824691 0.424721
139 4 0.231105 0.782204 0.374883
140 4 0.197664 0.854693 0.463986
141 1 0.156056 0.879022 0.235692
142 2 0.262093 0.872286 0.241312
143 3 0.282843 0.845636 0.286161
144 3 0.305912 0.906695 0.206279
145 2 0.0891583 0.851629 0.282444
146 3 0.00924031 0.855679 0.269946
147 3 0.127305 0.82548 0.322523
148 1 0.118004 0.912492 0.182277
149 2 0.187424 0.934122 0.132371
150 4 0.153307 0.922666 0.0786072
151 4 0.27392 0.974753 0.140119
152 2 0.0112336 0.925309 0.174721
153 4 0.981105 0.967797 0.124883
154 4 0.947663 0.895307 0.213986
155 1 0.0939443 0.629022 0.014308
156 2 0.987906 0.622286 0.0086876
157 3 0.967157 0.595636 0.963839
158 3 0.944088 0.656695 0.0437212
159 2 0.160842 0.601629 0.967556
160 3 0.24076 0.605679 0.980054
161 3 0.122695 0.57548 0.927477
162 1 0.131997 0.662492 0.0677231
163 2 0.0625762 0.684122 0.11763
164 4 0.0966927 0.672666 0.171393
165 4 0.97608 0.724753 0.109881
166 2 0.238766 0.675309 0.075279
167 4 0.268895 0.717796 0.125117
168 4 0.302336 0.645307 0.0360142
169 1 0.843944 0.620978 0.264308
170 2 0.737907 0.627714 0.258688
171 3 0.717157 0.654364 0.213839
172 3 0.694088 0.593305 0.293721
173 2 0.910842 0.648371 0.217556
174 3 0.99076 0.644321 0.230054
175 3 0.872695 0.674521 0.177477
176 1 0.881997 0.587508 0.317723
177 2 0.812576 0.565878 0.36763
178 4 0.846693 0.577334 0.421393
179 4 0.72608 0.525247 0.359881
180 2 0.988766 0.574691 0.325279
181 4 0.0188951 0.532204 0.375117
182 4 0.0523365 0.604693 0.286014
183 1 0.906056 0.870978 0.485692
184 2 0.0120937 0.877714 0.491312
185 3 0.0328434 0.904364 0.536161
186 3 0.0559117 0.843305 0.456279
187 2 0.839158 0.898371 0.532444
188 3 0.75924 0.894321 0.519946
189 3 0.877305 0.92452 0.572523
190 1 0.868003 0.837508 0.432277
191 2 0.937424 0.815878 0.38237
192 4 0.903307 0.827334 0.328607
193 4 0.0239203 0.775247 0.390119
194 2 0.761234 0.824691 0.424721
195 4 0.731105 0.782204 0.374883
196 4 0.697664 0.854693 0.463986
197 1 0.656056 0.879022 0.235692
198 2 0.762093 0.872286 0.241312
199 3 0.782843 0.845636 0.286161
200 3 0.805912 0.906695 0.206279
201 2 0.589158 0.851629 0.282444
202 3 0.50924 0.855679 0.269946
203 3 0.627305 0.82548 0.322523
204 1 0.618003 0.912492 0.182277
205 2 0.687424 0.934122 0.13237
206 4 0.653307 0.922666 0.0786071
207 4 0.77392 0.974753 0.140119
208 2 0.511234 0.925309 0.174721
209 4 0.481105 0.967796 0.124883
210 4 0.447664 0.895307 0.213986
211 1 0.593944 0.629022 0.0143079
212 2 0.487906 0.622286 0.00868762
213 3 0.467157 0.595636 0.963839
214 3 0.444088 0.656695 0.0437212
215 2 0.660842 0.601629 0.967556
216 3 0.74076 0.605679 0.980054
217 3 0.622695 0.57548 0.927477
218 1 0.631997 0.662493 0.0677234
219 2 0.562576 0.684122 0.11763
220 4 0.596693 0.672666 0.171393
221 4 0.47608 0.724753 0.109881
222 2 0.738766 0.675309 0.075279
223 4 0.768895 0.717796 0.125117
224 4 0.802336 0.645307 0.0360142
225 1 0.343944 0.120978 0.764308
226 2 0.237906 0.127714 0.758688
227 3 0.217157 0.154364 0.713839
228 3 0.194088 0.0933052 0.793721
229 2 0.410842 0.148371 0.717556
230 3 0.49076 0.144321 0.730054
231 3 0.372695 0.17452 0.677477
232 1 0.381997 0.0875075 0.817723
233 2 0.312576 0.0658777 0.86763
234 4 0.346693 0.0773341 0.921393
235 4 0.22608 0.0252472 0.859881
236 2 0.488766 0.0746912 0.825279
237 4 0.518895 0.0322035 0.875117
238 4 0.552336 0.104693 0.786014
239 1 0.406046 0.37097 0.98568
240 2 0.512039 0.377709 0.99131
241 3 0.53284 0.404363 0.0361593
242 3 0.555909 0.343306 0.95628
243 2 0.339192 0.398355 0.03242
244 3 0.259244 0.394321 0.0199459
245 3 0.377305 0.424519 0.0725209
246 1 0.36803 0.337532 0.932316
247 2 0.437424 0.315881 0.882377
248 4 0.403306 0.327335 0.828606
249 4 0.523924 0.275246 0.890119
250 2 0.26124 0.324694 0.924725
251 4 0.231104 0.282203 0.874882
252 4 0.19766 0.354694 0.963987
253 1 0.156056 0.379022 0.735692
254 2 0.262093 0.372286 0.741312
255 3 0.282843 0.345636 0.786161
256 3 0.305912 0.406695 0.706279
257 2 0.089158 0.351629 0.782444
258 3 0.0092406 0.355679 0.769946
259 3 0.127306 0.32548 0.822523
260 1 0.118003 0.412492 0.682277
261 2 0.187424 0.434122 0.63237
262 4 0.153307 0.422666 0.578607
263 4 0.27392 0.474753 0.640119
264 2 0.0112336 0.425309 0.674721
265 4 0.981105 0.467796 0.624883
266 4 0.947664 0.395307 0.713986
267 1 0.0939444 0.129022 0.514308
268 2 0.987907 0.122286 0.508688
269 3 0.967157 0.0956358 0.463839
270 3 0.944088 0.156695 0.543721
271 2 0.160842 0.101629 0.467556
272 3 0.24076 0.105679 0.480054
273 3 0.122694 0.0754796 0.427477
274 1 0.131997 0.162492 0.567723
275 2 0.0625762 0.184122 0.61763
276 4 0.0966927 0.172666 0.671393
277 4 0.97608 0.224753 0.609881
278 2 0.238766 0.175309 0.575279
279 4 0.268895 0.217796 0.625117
280 4 0.302336 0.145307 0.536014
281 1 0.843944 0.120978 0.764308
282 2 0.737906 0.127714 0.758688
283 3 0.717157 0.154364 0.713839
284 3 0.694088 0.0933052 0.793721
285 2 0.910842 0.148371 0.717556
286 3 0.99076 0.144321 0.730054
287 3 0.872695 0.17452 0.677477
288 1 0.881997 0.0875076 0.817723
289 2 0.812576 0.0658777 0.86763
290 4 0.846693 0.0773342 0.921393
291 4 0.72608 0.0252472 0.859881
292 2 0.988766 0.0746912 0.825279
293 4 0.0188951 0.0322035 0.875117
294 4 0.0523365 0.104693 0.786014
295 1 0.906056 0.370978 0.985692
296 2 0.0120937 0.377714 0.991312
297 3 0.0328434 0.404364 0.0361605
298 3 0.0559118 0.343305 0.956279
299 2 0.839158 0.398371 0.0324442
300 3 0.75924 0.394321 0.0199458
301 3 0.877305 0.42452 0.0725229
302 1 0.868003 0.337508 0.932277
303 2 0.937424 0.315878 0.88237
304 4 0.903307 0.327334 0.828607
305 4 0.0239204 0.275247 0.890119
306 2 0.761234 0.324691 0.924721
307 4 0.731105 0.282204 0.874883
308 4 0.697664 0.354693 0.963986
309 1 0.656056 0.379022 0.735692
310 2 0.762094 0.372286 0.741312
311 3 0.782843 0.345636 0.786161
312 3 0.805912 0.406695 0.706279
313 2 0.589157 0.351629 0.782445
314 3 0.50924 0.355679 0.769946
315 3 0.627305 0.325479 0.822523
316 1 0.618003 0.412493 0.682276
317 2 0.687424 0.434122 0.63237
318 4 0.653307 0.422666 0.578607
319 4 0.77392 0.474753 0.640119
320 2 0.511234 0.425309 0.674721
321 4 0.481105 0.467796 0.624884
322 4 0.447664 0.395307 0.713986
323 1 0.593944 0.129022 0.514308
324 2 0.487906 0.122286 0.508688
325 3 0.467157 0.0956358 0.463839
326 3 0.444088 0.156695 0.543721
327 2 0.660842 0.101629 0.467556
328 3 0.74076 0.105679 0.480054
329 3 0.622695 0.0754795 0.427477
330 1 0.631997 0.162492 0.567723
331 2 0.562576 0.184122 0.61763
332 4 0.596693 0.172666 0.671393
333 4 0.47608 0.224753 0.609881
334 2 0.738766 0.175309 0.575279
335 4 0.768895 0.217796 0.625117
336 4 0.802336 0.145307 0.536014
337 1 0.343944 0.620978 0.764308
338 2 0.237906 0.627714 0.758688
339 3 0.217157 0.654364 0.713839
340 3 0.194088 0.593305 0.793721
341 2 0.410842 0.648371 0.717556
342 3 0.49076 0.644321 0.730054
343 3 0.372695 0.67452 0.677477
344 1 0.381997 0.587508 0.817723
345 2 0.312576 0.565878 0.86763
346 4 0.346693 0.577334 0.921393
347 4 0.22608 0.525247 0.859881
348 2 0.488766 0.574691 0.825279
349 4 0.518895 0.532204 0.875117
350 4 0.552336 0.604693 0.786014
351 1 0.406046 0.87097 0.98568
352 2 0.512039 0.877709 0.99131
353 3 0.53284 0.904363 0.0361593
354 3 0.555909 0.843306 0.95628
355 2 0.339192 0.898355 0.0324201
356 3 0.259244 0.894321 0.0199459
357 3 0.377305 0.924519 0.072521
358 1 0.36803 0.837532 0.932316
359 2 0.437424 0.815881 0.882377
360 4 0.403306 0.827335 0.828606
361 4 0.523924 0.775246 0.890119
362 2 0.26124 0.824694 0.924725
363 4 0.231104 0.782203 0.874882
364 4 0.19766 0.854694 0.963987
365 1 0.156056 0.879022 0.735692
366 2 0.262094 0.872286 0.741312
367 3 0.282843 0.845636 0.786161
368 3 0.305912 0.906695 0.706279
369 2 0.0891579 0.851629 0.782444
370 3 0.00924062 0.855679 0.769946
371 3 0.127306 0.82548 0.822523
372 1 0.118003 0.912492 0.682277
373 2 0.187424 0.934122 0.63237
374 4 0.153307 0.922666 0.578607
375 4 0.27392 0.974753 0.640119
376 2 0.0112336 0.925309 0.674721
377 4 0.981105 0.967796 0.624883
378 4 0.947664 0.895307 0.713986
379 1 0.0939443 0.629022 0.514308
380 2 0.987906 0.622286 0.508688
381 3 0.967157 0.595636 0.463839
382 3 0.944088 0.656695 0.543721
383 2 0.160842 0.601629 0.467556
384 3 0.24076 0.605679 0.480054
385 3 0.122694 0.57548 0.427477
386 1 0.131997 0.662492 0.567723
387 2 0.0625762 0.684122 0.61763
388 4 0.0966927 0.672666 0.671393
389 4 0.97608 0.724753 0.609881
390 2 0.238766 0.675309 0.575279
391 4 0.268895 0.717796 0.625117
392 4 0.302336 0.645307 0.536014
393 1 0.843944 0.620978 0.764308
394 2 0.737907 0.627714 0.758688
395 3 0.717157 0.654364 0.713839
396 3 0.694088 0.593305 0.793721
397 2 0.910842 0.648371 0.717556
398 3 0.99076 0.644321 0.730054
399 3 0.872695 0.67452 0.677477
400 1 0.881997 0.587508 0.817723
401 2 0.812576 0.565878 0.86763
402 4 0.846693 0.577334 0.921393
403 4 0.72608 0.525247 0.859881
404 2 0.988766 0.574691 0.825279
405 4 0.0188951 0.532204 0.875117
406 4 0.0523365 0.604693 0.786014
407 1 0.906056 0.870978 0.985692
408 2 0.0120935 0.877714 0.991312
409 3 0.0328433 0.904364 0.0361606
410 3 0.0559118 0.843305 0.956279
411 2 0.839158 0.898371 0.0324442
412 3 0.75924 0.894321 0.0199458
413 3 0.877306 0.92452 0.072523
414 1 0.868003 0.837508 0.932277
415 2 0.937424 0.815878 0.88237
416 4 0.903307 0.827334 0.828607
417 4 0.0239204 0.775247 0.890119
418 2 0.761234 0.824691 0.924721
419 4 0.731105 0.782204 0.874883
420 4 0.697664 0.854693 0.963986
421 1 0.656056 0.879022 0.735692
422 2 0.762094 0.872286 0.741312
423 3 0.782843 0.845636 0.786161
424 3 0.805912 0.906695 0.706279
425 2 0.589157 0.851629 0.782445
426 3 0.50924 0.855679 0.769946
427 3 0.627305 0.82548 0.822523
428 1 0.618003 0.912493 0.682276
429 2 0.687424 0.934122 0.63237
430 4 0.653307 0.922666 0.578607
431 4 0.77392 0.974753 0.640119
432 2 0.511234 0.925309 0.674721
433 4 0.481105 0.967796 0.624884
434 4 0.447664 0.895307 0.713986
435 1 0.593944 0.629022 0.514308
436 2 0.487907 0.622286 0.508688
437 3 0.467157 0.595636 0.463839
438 3 0.444088 0.656695 0.543721
439 2 0.660842 0.601629 0.467556
440 3 0.74076 0.605679 0.480054
441 3 0.622695 0.57548 0.427477
442 1 0.631997 0.662492 0.567723
443 2 0.562576 0.684122 0.61763
444 4 0.596693 0.672666 0.671393
445 4 0.47608 0.724753 0.609881
446 2 0.738766 0.675309 0.575279
447 4 0.768895 0.717796 0.625117
448 4 0.802336 0.645307 0.536014
ITEM: TIMESTEP
1000
ITEM: NUMBER OF ATOMS
448
ITEM: BOX BOUNDS xy xz yz pp pp pp
-2.4042895395418817e+00 1.4576103303159796e+01 1.0207666403691927e-01
-1.1755570659777508e+00 1.4656823176696490e+01 -1.8094629004190708e+00
-5.2264819290673792e-01 2.3202558551206742e+01 2.0646611071878082e-01
ITEM: ATOMS id type xs ys zs
1 1 0.327612 0.1158 0.256055
2 2 0.229636 0.12205 0.245367
3 3 0.211023 0.121911 0.201406
4 3 0.191923 0.107539 0.282608
5 2 0.393086 0.129388 0.215072
6 3 0.461816 0.0890958 0.224856
7 3 0.357982 0.148921 0.174358
8 1 0.365029 0.0967831 0.31036
9 2 0.304278 0.0749444 0.354732
10 4 0.337587 0.0447793 0.403873
11 4 0.219335 0.100951 0.354711
12 2 0.466876 0.0920781 0.322044
13 4 0.500082 0.0990014 0.375051
14 4 0.519685 0.0721087 0.282778
15 1 0.413245 0.361111 0.479489
16 2 0.508127 0.385471 0.483102
17 3 0.538207 0.426051 0.514972
18 3 0.549121 0.361526 0.446203
19 2 0.358242 0.36902 0.526769
20 3 0.283658 0.357621 0.519811
21 3 0.395987 0.38007 0.569571
22 1 0.370243 0.338222 0.427457
23 2 0.429013 0.333477 0.379486
24 4 0.386818 0.305036 0.333713
25 4 0.515918 0.342806 0.380997
26 2 0.272669 0.323531 0.42321
27 4 0.237523 0.304842 0.371979
28 4 0.220677 0.329566 0.466079
29 1 0.137809 0.377817 0.237611
30 2 0.235671 0.358043 0.242555
31 3 0.268393 0.347873 0.286631
32 3 0.261905 0.366749 0.199782
33 2 0.0838919 0.375428 0.285751
34 3 0.00544301 0.374301 0.278433
35 3 0.117074 0.359737 0.325925
36 1 0.0972728 0.39242 0.183643
37 2 0.152442 0.398548 0.132956
38 4 0.105282 0.414213 0.0854629
39 4 0.239918 0.390027 0.133472
40 2 0.998636 0.403291 0.180125
41 4 0.956737 0.403606 0.130775
42 4 0.946485 0.407817 0.224737
43 1 0.0841028 0.11983 0.00252136
44 2 0.988361 0.12856 0.993116
45 3 0.956441 0.0996665 0.95284
46 3 0.949243 0.157191 0.0304058
47 2 0.14725 0.0923676 0.9621
48 3 0.220893 0.074501 0.976361
49 3 0.115786 0.0834751 0.921
50 1 0.12636 0.14628 0.0542735
51 2 0.0703691 0.180823 0.0980379
52 4 0.105258 0.215451 0.144378
53 4 0.980431 0.180677 0.0937147
54 2 0.224397 0.135852 0.0664056
55 4 0.255552 0.150819 0.117606
56 4 0.283084 0.121732 0.0264194
57 1 0.847829 0.120746 0.249979
58 2 0.750043 0.11317 0.241426
59 3 0.719853 0.12775 0.198773
60 3 0.709739 0.112383 0.280703
61 2 0.908457 0.15095 0.210575
62 3 0.987424 0.156771 0.223981
63 3 0.877401 0.168162 0.168292
64 1 0.885932 0.0978911 0.304092
65 2 0.824287 0.0600504 0.347165
66 4 0.867305 0.0208079 0.389953
67 4 0.737272 0.0661836 0.341295
68 2 0.980164 0.11463 0.317153
69 4 0.0102093 0.111783 0.37157
70 4 0.042182 0.130557 0.280097
71 1 0.890341 0.379883 0.493255
72 2 0.986991 0.391836 0.493366
73 3 0.0184208 0.401552 0.533684
74 3 0.006265 0.416453 0.449968
75 2 0.834674 0.397532 0.538151
76 3 0.755364 0.399054 0.52814
77 3 0.870446 0.405246 0.579732
78 1 0.850299 0.356071 0.439916
79 2 0.909975 0.338279 0.391681
80 4 0.872551 0.289025 0.352571
81 4 0.990564 0.368971 0.387595
82 2 0.748551 0.351873 0.432595
83 4 0.714061 0.333405 0.381163
84 4 0.697972 0.363427 0.473787
85 1 0.624837 0.380732 0.239869
86 2 0.720567 0.395755 0.257498
87 3 0.733592 0.386636 0.301686
88 3 0.758179 0.414055 0.218573
89 2 0.561529 0.359336 0.280323
90 3 0.492166 0.354724 0.256409
91 3 0.587754 0.356872 0.326242
92 1 0.599286 0.383848 0.182213
93 2 0.667949 0.40058 0.13998
94 4 0.632451 0.417696 0.0897693
95 4 0.756639 0.39792 0.148751
96 2 0.501091 0.376815 0.163181
97 4 0.471316 0.397494 0.111387
98 4 0.437341 0.355665 0.196526
99 1 0.601591 0.100292 0.00885287
100 2 0.50691 0.0802785 0.0114641
101 3 0.486288 0.0577323 0.966499
102 3 0.475661 0.0663252 0.0525602
103 2 0.654621 0.0882366 0.959914
104 3 0.723378 0.115731 0.961718
105 3 0.616976 0.0698527 0.921047
106 1 0.646628 0.131776 0.0576087
107 2 0.590923 0.150321 0.107541
108 4 0.630017 0.201695 0.146722
109 4 0.508454 0.127349 0.110474
110 2 0.743545 0.150388 0.0579212
111 4 0.786849 0.155282 0.109287
112 4 0.789059 0.156588 0.0123464
113 1 0.351883 0.586324 0.279234
114 2 0.261239 0.610396 0.261566
115 3 0.244414 0.618761 0.216417
116 3 0.220927 0.619468 0.303916
117 2 0.420683 0.575456 0.240162
118 3 0.492495 0.555854 0.259034
119 3 0.39524 0.587667 0.193525
120 1 0.370872 0.567344 0.337545
121 2 0.299987 0.556995 0.376948
122 4 0.322943 0.531387 0.429348
123 4 0.216072 0.5854 0.365529
124 2 0.467783 0.552633 0.357271
125 4 0.485232 0.552606 0.412972
126 4 0.533623 0.538919 0.325971
127 1 0.436914 0.867602 0.485837
128 2 0.533392 0.871072 0.484106
129 3 0.572473 0.912096 0.512512
130 3 0.561055 0.825524 0.449077
131 2 0.385761 0.894254 0.533446
132 3 0.315235 0.863055 0.531229
133 3 0.418089 0.927821 0.56906
134 1 0.388782 0.844442 0.436264
135 2 0.439642 0.820234 0.38623
136 4 0.388984 0.798573 0.339877
137 4 0.526118 0.818511 0.383513
138 2 0.288153 0.842764 0.432943
139 4 0.245582 0.849882 0.383469
140 4 0.239363 0.847557 0.47748
141 1 0.154618 0.910341 0.240527
142 2 0.252892 0.894083 0.243053
143 3 0.284693 0.888978 0.285287
144 3 0.280862 0.879448 0.20241
145 2 0.105542 0.915376 0.290244
146 3 0.0347004 0.943776 0.281064
147 3 0.138072 0.885862 0.33112
148 1 0.113467 0.923291 0.186654
149 2 0.167191 0.923133 0.134963
150 4 0.12595 0.961758 0.0899601
151 4 0.241253 0.88174 0.130616
152 2 0.0128556 0.932762 0.181759
153 4 0.972638 0.933187 0.13005
154 4 0.965764 0.950194 0.224696
155 1 0.118006 0.608548 0.0250624
156 2 0.0226403 0.609954 0.0173532
157 3 0.997876 0.587915 0.97642
158 3 0.989866 0.609699 0.0605609
159 2 0.180763 0.587872 0.981414
160 3 0.244756 0.627705 0.985583
161 3 0.149343 0.568743 0.939836
162 1 0.159845 0.631191 0.0776505
163 2 0.103814 0.667909 0.121255
164 4 0.14496 0.702586 0.166767
165 4 0.0168563 0.661439 0.118493
166 2 0.257481 0.62575 0.0886012
167 4 0.294423 0.627051 0.140874
168 4 0.311889 0.617803 0.0477327
169 1 0.843126 0.601027 0.269369
170 2 0.746075 0.621166 0.258803
171 3 0.724012 0.635401 0.215274
172 3 0.71253 0.637524 0.300925
173 2 0.906667 0.596418 0.226584
174 3 0.98263 0.598638 0.240545
175 3 0.873478 0.591399 0.185737
176 1 0.870228 0.582525 0.325605
177 2 0.804962 0.581132 0.370338
178 4 0.832652 0.545516 0.419622
179 4 0.727233 0.620556 0.365969
180 2 0.968851 0.573561 0.339177
181 4 0.997939 0.557539 0.392739
182 4 0.029973 0.574298 0.302828
183 1 0.941948 0.872254 0.491255
184 2 0.0350155 0.905026 0.496264
185 3 0.050227 0.923155 0.53903
186 3 0.0836368 0.877329 0.466834
187 2 0.876304 0.872724 0.533629
188 3 0.825161 0.820665 0.527724
189 3 0.896697 0.912695 0.573784
190 1 0.915861 0.838636 0.438826
191 2 0.97883 0.831035 0.393853
192 4 0.952319 0.797504 0.345942
193 4 0.0659994 0.847077 0.4004
194 2 0.817063 0.81178 0.429921
195 4 0.790688 0.802578 0.375304
196 4 0.762634 0.806384 0.468776
197 1 0.695546 0.868982 0.244391
198 2 0.791258 0.848458 0.24677
199 3 0.814927 0.825153 0.289046
200 3 0.826218 0.853879 0.207278
201 2 0.643577 0.867007 0.293989
202 3 0.575676 0.900719 0.287116
203 3 0.679514 0.864403 0.336204
204 1 0.652807 0.897477 0.192549
205 2 0.709154 0.906529 0.143478
206 4 0.675273 0.945444 0.0976134
207 4 0.784309 0.860829 0.140698
208 2 0.558499 0.919917 0.187602
209 4 0.523256 0.932532 0.136701
210 4 0.503743 0.913412 0.231718
211 1 0.616479 0.625005 0.0114741
212 2 0.520281 0.629283 0.00890958
213 3 0.487578 0.607048 0.964653
214 3 0.492311 0.617021 0.0527748
215 2 0.669468 0.606567 0.9645
216 3 0.747527 0.608397 0.977196
217 3 0.62741 0.604947 0.92634
218 1 0.657629 0.6492 0.0651799
219 2 0.602506 0.670053 0.111537
220 4 0.636353 0.717993 0.153383
221 4 0.518388 0.645499 0.118627
222 2 0.756565 0.649591 0.0718379
223 4 0.799306 0.664522 0.121963
224 4 0.80908 0.643034 0.0302231
225 1 0.317847 0.129586 0.763632
226 2 0.220285 0.148167 0.758075
227 3 0.200988 0.187813 0.721078
228 3 0.176276 0.109542 0.785758
229 2 0.377477 0.14409 0.718862
230 3 0.448899 0.152142 0.733773
231 3 0.346353 0.180331 0.680957
232 1 0.359958 0.102416 0.814244
233 2 0.29437 0.0836174 0.858961
234 4 0.319861 0.0902371 0.912701
235 4 0.210592 0.0587639 0.84575
236 2 0.459564 0.0950962 0.824301
237 4 0.495183 0.0525423 0.868908
238 4 0.514485 0.133136 0.791604
239 1 0.382504 0.331779 0.978379
240 2 0.479537 0.337785 0.986223
241 3 0.508146 0.347836 0.0313512
242 3 0.514165 0.337132 0.945315
243 2 0.322867 0.332207 0.0225958
244 3 0.246286 0.347152 0.0111928
245 3 0.351011 0.331252 0.0678042
246 1 0.343619 0.321722 0.922706
247 2 0.400359 0.328623 0.874668
248 4 0.360238 0.323086 0.823106
249 4 0.483763 0.356503 0.878706
250 2 0.246441 0.30645 0.915489
251 4 0.215072 0.281745 0.864306
252 4 0.187017 0.327876 0.95173
253 1 0.160593 0.439053 0.727089
254 2 0.256377 0.426029 0.736571
255 3 0.278166 0.427373 0.780596
256 3 0.296787 0.424607 0.698246
257 2 0.0954887 0.4416 0.769768
258 3 0.0231422 0.41935 0.750978
259 3 0.125103 0.439283 0.813805
260 1 0.12686 0.449942 0.670554
261 2 0.189651 0.447443 0.625527
262 4 0.170747 0.485834 0.577691
263 4 0.269223 0.399989 0.631478
264 2 0.0283839 0.464143 0.657191
265 4 4.944e-05 0.483481 0.604796
266 4 0.966908 0.446711 0.692657
267 1 0.0836604 0.162551 0.51017
268 2 0.985393 0.168844 0.501473
269 3 0.958346 0.174795 0.456899
270 3 0.956059 0.157768 0.546785
271 2 0.144873 0.147338 0.466354
272 3 0.21658 0.129719 0.484196
273 3 0.119025 0.124067 0.425499
274 1 0.125086 0.18444 0.562645
275 2 0.066409 0.206745 0.60733
276 4 0.100221 0.238058 0.653982
277 4 0.980158 0.176393 0.611788
278 2 0.224535 0.185046 0.574472
279 4 0.258875 0.229013 0.618697
280 4 0.278119 0.144618 0.542935
281 1 0.83025 0.0956237 0.758013
282 2 0.737886 0.102208 0.750578
283 3 0.715086 0.116807 0.706441
284 3 0.695751 0.0826849 0.790206
285 2 0.895542 0.108616 0.715066
286 3 0.971194 0.0899712 0.726743
287 3 0.85785 0.11602 0.672542
288 1 0.8632 0.0686277 0.81418
289 2 0.796766 0.0645694 0.85591
290 4 0.818165 0.0464587 0.907163
291 4 0.705572 0.0543885 0.836522
292 2 0.962975 0.0506119 0.827436
293 4 0.995077 0.0268478 0.877796
294 4 0.0188784 0.0632791 0.788374
295 1 0.887965 0.343895 0.970547
296 2 0.985735 0.341335 0.969608
297 3 0.0274328 0.367657 0.00561364
298 3 0.0173075 0.326958 0.930204
299 2 0.833958 0.368139 0.0171317
300 3 0.762147 0.349995 0.0129472
301 3 0.868101 0.395831 0.0533106
302 1 0.835385 0.325624 0.921537
303 2 0.888958 0.2996 0.868531
304 4 0.846284 0.261663 0.825552
305 4 0.962922 0.33739 0.862922
306 2 0.735881 0.325353 0.917215
307 4 0.693315 0.321276 0.866189
308 4 0.693579 0.311767 0.96346
309 1 0.615119 0.388852 0.734163
310 2 0.702181 0.344657 0.733834
311 3 0.724346 0.314946 0.775068
312 3 0.727986 0.330773 0.690008
313 2 0.568581 0.407712 0.783415
314 3 0.494579 0.434185 0.778036
315 3 0.594592 0.372641 0.823126
316 1 0.579961 0.420144 0.681865
317 2 0.635308 0.424965 0.633763
318 4 0.602477 0.467509 0.587605
319 4 0.715154 0.388405 0.632112
320 2 0.485108 0.450299 0.675876
321 4 0.452241 0.471816 0.624259
322 4 0.439725 0.463524 0.720394
323 1 0.569532 0.167907 0.510825
324 2 0.472621 0.161788 0.504891
325 3 0.446003 0.144562 0.461052
326 3 0.450222 0.131598 0.543117
327 2 0.63018 0.153397 0.464687
328 3 0.704547 0.168737 0.476446
329 3 0.595646 0.140319 0.427191
330 1 0.608396 0.195465 0.562656
331 2 0.549527 0.218 0.609184
332 4 0.591672 0.2146 0.659371
333 4 0.460184 0.208113 0.60655
334 2 0.705727 0.19857 0.571436
335 4 0.739807 0.212029 0.623935
336 4 0.766387 0.173851 0.535942
337 1 0.349548 0.646681 0.774398
338 2 0.25126 0.656619 0.771214
339 3 0.215315 0.677693 0.732051
340 3 0.210946 0.625317 0.802734
341 2 0.40197 0.681725 0.730953
342 3 0.478139 0.681867 0.74885
343 3 0.359802 0.705327 0.694534
344 1 0.386085 0.606106 0.823272
345 2 0.322282 0.573953 0.864193
346 4 0.355695 0.570969 0.918111
347 4 0.252577 0.527058 0.849405
348 2 0.487164 0.603458 0.833045
349 4 0.520198 0.570883 0.881347
350 4 0.54176 0.637987 0.798894
351 1 0.446926 0.838265 0.00295242
352 2 0.543202 0.841811 0.00622767
353 3 0.581112 0.853884 0.048462
354 3 0.580972 0.818524 0.968615
355 2 0.392825 0.841829 0.0505412
356 3 0.317221 0.825048 0.0369311
357 3 0.428253 0.853482 0.0915914
358 1 0.399502 0.829665 0.949581
359 2 0.451714 0.820388 0.899432
360 4 0.408222 0.802634 0.85105
361 4 0.538209 0.838904 0.899299
362 2 0.299006 0.836877 0.941737
363 4 0.258735 0.843501 0.890721
364 4 0.24612 0.825471 0.983519
365 1 0.185593 0.897705 0.740244
366 2 0.28086 0.884803 0.734749
367 3 0.323477 0.86648 0.770512
368 3 0.308758 0.897803 0.694131
369 2 0.134829 0.872077 0.788968
370 3 0.0671938 0.900391 0.792228
371 3 0.172824 0.83883 0.822181
372 1 0.136636 0.922686 0.69168
373 2 0.184265 0.950939 0.640521
374 4 0.137562 0.996122 0.603048
375 4 0.27136 0.942621 0.635312
376 2 0.037136 0.925304 0.69096
377 4 0.990212 0.935833 0.641828
378 4 0.993753 0.917258 0.737068
379 1 0.0875854 0.665031 0.511659
380 2 0.991536 0.663094 0.502265
381 3 0.966209 0.629646 0.463263
382 3 0.948764 0.678372 0.538642
383 2 0.148207 0.64627 0.467347
384 3 0.221022 0.63916 0.482811
385 3 0.108137 0.618743 0.431762
386 1 0.127302 0.684171 0.565709
387 2 0.0661175 0.702603 0.608731
388 4 0.0979744 0.73276 0.658487
389 4 0.978419 0.681285 0.607547
390 2 0.227572 0.69046 0.575453
391 4 0.2603 0.720823 0.624784
392 4 0.282203 0.670016 0.53721
393 1 0.871389 0.607506 0.770053
394 2 0.776316 0.594153 0.76005
395 3 0.751825 0.590675 0.715055
396 3 0.733873 0.589427 0.798626
397 2 0.933658 0.641495 0.729758
398 3 0.00488218 0.661868 0.747846
399 3 0.902152 0.646968 0.68376
400 1 0.91036 0.592679 0.825178
401 2 0.849769 0.558861 0.867572
402 4 0.888906 0.5209 0.911577
403 4 0.760971 0.552097 0.862632
404 2 0.00836262 0.609595 0.840389
405 4 0.0327809 0.611179 0.894693
406 4 0.0683784 0.634893 0.805693
407 1 0.91921 0.829812 0.976396
408 2 0.0179567 0.841257 0.980799
409 3 0.0425464 0.842503 0.0258271
410 3 0.0518602 0.86039 0.939491
411 2 0.862865 0.833562 0.0236164
412 3 0.788426 0.823609 0.0124165
413 3 0.896749 0.848821 0.0648764
414 1 0.879037 0.812869 0.924438
415 2 0.939806 0.805096 0.873967
416 4 0.897802 0.777487 0.827748
417 4 0.021307 0.831736 0.873302
418 2 0.778488 0.803743 0.914404
419 4 0.745315 0.808965 0.861438
420 4 0.721817 0.795671 0.953195
421 1 0.646695 0.873679 0.722394
422 2 0.72973 0.821584 0.722938
423 3 0.744108 0.787981 0.763317
424 3 0.754861 0.802774 0.679913
425 2 0.598344 0.884225 0.773091
426 3 0.525134 0.896688 0.763322
427 3 0.630435 0.870683 0.817198
428 1 0.619976 0.917963 0.673284
429 2 0.672359 0.910205 0.623467
430 4 0.659355 0.96603 0.581253
431 4 0.743006 0.859129 0.621108
432 2 0.53667 0.974367 0.67451
433 4 0.500843 0.0106202 0.628151
434 4 0.487979 0.976012 0.718686
435 1 0.584298 0.653928 0.52969
436 2 0.487576 0.651421 0.534273
437 3 0.452663 0.624541 0.497926
438 3 0.456279 0.658481 0.576049
439 2 0.631985 0.634453 0.480927
440 3 0.711183 0.655355 0.487227
441 3 0.597743 0.610709 0.441712
442 1 0.642229 0.672113 0.576997
443 2 0.587243 0.704157 0.630833
444 4 0.621432 0.684705 0.680365
445 4 0.52487 0.760923 0.621874
446 2 0.740506 0.6583 0.581549
447 4 0.779957 0.652414 0.632891
448 4 0.785694 0.640211 0.536893