LAMMPS data file via write_data, version 15 Apr 2020, timestep = 80000

448 atoms
4 atom types

-4.5036422286693600e-01 1.4329564222867099e+01 xlo xhi
-3.6177716739038956e-01 1.3636577167390376e+01 ylo yhi
-1.0413508945319911e+00 2.3721261252833216e+01 zlo zhi
4.6532138031086108e+00 -1.0269735840383349e+00 -1.1860880407826311e+00 xy xz yz

Masses

1 12.0107
2 14.0067
3 1.00794
4 15.9994

Atoms # full

1 1 1 3.3952453498894608e-01 3.8867768515859713e-02 1.2718513017792068e+00 2.4125327390299955e+00 0 0 0
10 1 4 -2.1940915254545543e-01 1.4474560305193844e+01 1.1163259756161352e+00 6.0946735959275005e+00 -1 0 0
225 1 1 3.3441775317809314e-01 1.4200732726292376e+01 6.5281451016366443e-01 1.4853572999136972e+01 -1 0 0
140 1 4 -3.6244991746192956e-01 6.8840508290499383e+00 1.1021572586971331e+01 9.8022485202890142e+00 0 0 0
234 1 4 -2.3547368001749522e-01 1.4004771237139785e+01 1.0894087538063144e+00 1.8562609160629254e+01 -1 0 0
364 1 4 -2.5832664371352670e-01 6.6916267375203606e+00 1.1400138152314405e+01 2.2066207450341405e+01 0 0 0
79 1 2 -2.0346886491524632e-02 1.1002869699929452e+01 3.8753693479092037e+00 8.8927363105593074e+00 0 0 0
139 1 4 -2.3296201442528339e-01 7.1902441487634094e+00 1.1562320748471526e+01 7.5519509595608767e+00 0 0 0
176 1 1 9.0850798161781973e-02 8.8269268049649128e+00 7.4548820607127642e+00 1.0299845927787031e+01 1 0 0
400 1 1 1.0869257212032293e-01 7.9088227953338546e+00 7.3801487287584839e+00 2.2946386419104794e+01 1 0 0
173 1 2 -7.4065473989093022e-01 9.4788409978787911e+00 7.4705784940644078e+00 8.0271398861275767e+00 1 0 0
175 1 3 4.7260930503520299e-01 9.1808343065296185e+00 7.5263771447238614e+00 6.9502376248442417e+00 1 0 0
397 1 2 -6.0518327428422058e-01 8.5597427917995823e+00 8.0748536747690398e+00 2.0625594362427151e+01 1 0 0
399 1 3 4.2398361379878219e-01 8.1198440508920893e+00 8.2690567881805350e+00 1.9603499049069782e+01 1 0 0
71 1 1 3.3829248129764750e-01 1.0322102780671186e+01 4.0395574955726330e+00 1.1343881267334680e+01 0 0 0
80 1 4 -1.9209501213846342e-01 1.0512509842354351e+01 3.9337818229594879e+00 7.6817986442487811e+00 0 0 0
295 1 1 3.2735844445739609e-01 9.8454907645945866e+00 3.9807932605663012e+00 2.3604281070069476e+01 0 0 0
301 1 3 4.5094320224266587e-01 1.0001592357141782e+01 4.7775666526380185e+00 7.0909629920118511e-01 0 0 0
304 1 4 -2.0781972817528166e-01 9.9626464620994817e+00 5.2583721474948284e+00 2.0180497605811968e+01 0 0 0
77 1 3 4.3241539691384490e-01 9.4253063912614934e+00 4.2607327022917625e+00 1.3292951468355579e+01 0 0 0
78 1 1 1.0939608368434478e-01 9.9490754123189848e+00 3.8535916397688874e+00 9.9509420043393533e+00 0 0 0
302 1 1 1.0978319195841735e-01 9.4651647365070328e+00 4.2194424354647975e+00 2.2257238334283517e+01 0 0 0
75 1 2 -7.2396525103528730e-01 9.2150024643951109e+00 3.9877948884373673e+00 1.2188899665047957e+01 0 0 0
233 1 2 -5.3805300495975011e-03 1.3601536677638265e+01 9.8925772959738101e-01 1.7312910740127140e+01 -1 0 0
373 1 2 -1.0283691363344064e-02 5.8719379662646158e+00 1.1210576133008967e+01 1.4079378439186801e+01 0 0 0
299 1 2 -6.6193905100120998e-01 9.7966469080613425e+00 4.8375220783888704e+00 -3.2080554644216941e-01 0 0 0
149 1 2 -1.7493124022402839e-02 6.8962163452412524e+00 1.2338060536876062e+01 2.0119025991800941e+00 0 0 0
393 1 1 3.2880981127697612e-01 7.5061014145586409e+00 7.6897833069406580e+00 2.1561949444982830e+01 1 0 0
402 1 4 -1.7470542492994429e-01 8.1184447584272910e+00 8.1861034222480225e+00 3.9483084352298348e-01 1 0 1
88 1 3 4.5802625426686971e-01 8.9904397288279121e+00 4.5494829072592466e+00 4.5467015531830022e+00 0 0 0
34 1 3 5.1637985007372733e-01 1.1941308744988397e+01 3.9268484811269424e+00 5.4333657744080757e+00 -1 0 0
41 1 4 -2.0754979717259564e-01 1.1869881643660513e+01 4.0902778345172326e+00 2.0875967555383208e+00 0 0 0
231 1 3 4.2599548064993237e-01 7.0099803638813185e-02 1.6392369435485421e-01 1.2929233161468245e+01 0 0 0
7 1 3 4.3405150366567380e-01 7.0346435738303481e-01 1.3796739872263362e+00 3.3943791531309553e-01 0 0 0
229 1 2 -6.7328500095279575e-01 4.5012374733786387e-01 3.8155038437533462e-01 1.3939123940853273e+01 0 0 0
232 1 1 9.8076966130073231e-02 -1.7173144202414747e-01 8.5331696593954343e-01 1.6236787529859271e+01 0 0 0
42 1 4 -3.2446875311171958e-01 1.1350464130660290e+01 3.7826803504794739e+00 4.2913162576507435e+00 0 0 0
296 1 2 -7.1054600767198717e-01 1.2319489691092151e+01 5.3382833337977811e+00 -7.2080228656289003e-01 -1 0 1
266 1 4 -2.5261230430397208e-01 1.1412653704353456e+01 4.6075095372690775e+00 1.6856256993992073e+01 0 0 0
5 1 2 -6.6534648588791911e-01 1.0274581880440683e+00 1.4539140356987830e+00 1.4319426679521707e+00 0 0 0
6 1 3 5.9358245147039301e-01 2.1074945805522471e+00 1.4968024895285608e+00 2.0237645635257229e+00 0 0 0
8 1 1 7.1988139312153684e-02 3.8023878313405912e-01 1.2535325680757359e+00 3.8134377692668036e+00 0 0 0
12 1 2 -2.7310388635535702e-02 1.8195903063100023e+00 1.4719974083627636e+00 4.0314301514173723e+00 0 0 0
13 1 4 -2.2788078651705770e-01 2.3420844395093958e+00 1.5295146862395239e+00 5.2141936870446477e+00 0 0 0
101 1 3 4.4695000803050788e-01 7.0791110322798301e-01 8.9001441067789111e-01 1.9785955563541798e+01 0 0 0
102 1 3 5.8165938115833493e-01 5.4893802715738138e-01 5.6831701106147525e-01 2.1645524355518823e+01 0 0 -1
109 1 4 -2.7574675393047038e-01 7.7181174760021576e-01 5.3212610973428198e-01 2.3317972998507923e+01 0 0 -1
131 1 2 -6.9883207933967739e-01 8.7261418595624161e+00 1.0930467133195323e+01 1.1245538311708865e+01 0 0 0
132 1 3 5.9070189831407349e-01 7.6133027974734055e+00 1.0876869986077534e+01 1.0657892009605979e+01 0 0 0
138 1 2 -1.1733471252934051e-02 7.7186599687321449e+00 1.1182111050829407e+01 8.6668970364751807e+00 0 0 0
142 1 2 -6.8398770375956697e-01 7.5730548142337035e+00 1.2162287876223399e+01 4.6093436593442672e+00 0 0 0
143 1 3 4.5968971845043827e-01 7.9684567755532649e+00 1.2038629942565532e+01 5.6475134089573595e+00 0 0 0
144 1 3 5.6680180364650934e-01 8.1769821228031585e+00 1.2401481036057584e+01 3.5791997036624839e+00 0 0 0
151 1 4 -3.2878477314873145e-01 8.1819680326736890e+00 1.2630553031908441e+01 2.3969349582118600e+00 0 0 0
324 1 2 -6.6187785808205701e-01 1.9486703603004836e+00 8.9266669009161959e-01 8.3332926315270406e+00 0 0 0
325 1 3 4.2860563478861530e-01 1.5087769941944413e+00 1.4139524340003911e+00 7.4658062830228467e+00 0 0 0
326 1 3 5.6346890258893134e-01 1.4375502245415550e+00 6.0799391514068457e-01 9.4614498350528162e+00 0 0 0
333 1 4 -3.3815253010205293e-01 1.5846608866380614e+00 4.7107431649195752e-01 1.0607754428045682e+01 0 0 0
355 1 2 -6.8661044687132267e-01 9.6767816151757025e+00 1.2685460292061403e+01 -9.8842443138552372e-01 0 0 0
356 1 3 4.6528082650229974e-01 7.5404070220142527e+00 1.1430569801736176e+01 2.3506055145935683e+01 0 0 -1
357 1 3 4.7804779947997206e-01 1.0076257360701261e+01 1.2347679354095852e+01 -3.1138450821812214e-02 0 0 0
358 1 1 1.1046499655651512e-01 9.0986663945158313e+00 1.1310936123027806e+01 2.1358297172948575e+01 0 0 0
362 1 2 1.2105047074678512e-02 7.5547942998586617e+00 1.1318693528419358e+01 2.1085975931004015e+01 0 0 0
363 1 4 -2.0733143328938136e-01 7.0546238188251031e+00 1.1175689832423739e+01 1.9915156083274454e+01 0 0 0
366 1 2 -6.5466427039416086e-01 7.2972278933718009e+00 1.1611298528560352e+01 1.6527025987292848e+01 0 0 0
367 1 3 4.1100188654275199e-01 7.7653292965029088e+00 1.1358258725817214e+01 1.7553793432087236e+01 0 0 0
368 1 3 4.8129422893773371e-01 7.7495681525124755e+00 1.1667878730383805e+01 1.5527224029184655e+01 0 0 0
375 1 4 -2.4884794413718467e-01 7.2055755150215761e+00 1.1383803942827425e+01 1.3974855452758687e+01 0 0 0
169 1 1 3.1924852556724170e-01 8.4090646370466828e+00 7.4354834106912548e+00 8.9278797891662496e+00 1 0 0
178 1 4 -2.1178203485893055e-01 8.3084599775280434e+00 7.2759213589347880e+00 1.2612153451048476e+01 1 0 0
303 1 2 -1.3196900494027979e-02 1.0481615047424444e+01 4.7684749845507461e+00 2.1264481276021009e+01 0 0 0
171 1 3 4.5351022954495301e-01 6.7284312155061494e+00 7.6563381625371996e+00 7.5645156065779222e+00 1 0 0
224 1 4 -2.5017197186330797e-01 7.6068990494487201e+00 8.5655272457946925e+00 3.4189695410089627e+00 1 0 0
170 1 2 -6.7737777410372391e-01 6.9504544018386483e+00 7.5552722622299981e+00 8.6287938691715862e+00 1 0 0
179 1 4 -2.2716043105192671e-01 6.5007561454796532e+00 7.4637064027004785e+00 1.1221907634767144e+01 1 0 0
223 1 4 -2.0034718505764040e-01 7.1282424200853809e+00 8.0441718031742084e+00 5.5147808719187905e+00 1 0 0
440 1 3 5.7959614034768836e-01 5.9624870587917176e+00 7.1979187544731520e+00 1.4933652399798932e+01 1 0 0
401 1 2 -3.2786593831788738e-02 7.8770515775730470e+00 8.3529065639134075e+00 -8.4334401124181746e-01 1 0 1
319 1 4 -3.9194873407865316e-01 8.5893501287263110e+00 4.0519928288874469e+00 1.5275931304235471e+01 0 0 0
448 1 4 -3.4878313927228094e-01 6.6912413197808922e+00 7.5369442250960095e+00 1.5786758222198603e+01 1 0 0
177 1 2 -1.0605749787799237e-02 7.8320282113675432e+00 7.4333832690908448e+00 1.1410194754573190e+01 1 0 0
447 1 4 -1.8828972220150142e-01 6.3311357770740599e+00 7.5909627123632282e+00 1.8092644238000943e+01 1 0 0
9 1 2 -1.8074953741569321e-02 1.4052312245628364e+01 1.1107565406069202e+00 4.8990882335473049e+00 -1 0 0
158 1 3 5.9783181368210447e-01 1.0147881251052212e+01 7.8525395609147264e+00 4.1521302254303034e+00 1 0 0
165 1 4 -4.1217119703081739e-01 1.0253505677770059e+01 7.6849255728765549e+00 5.2503995663672587e+00 1 0 0
382 1 3 5.2130610761789098e-01 9.4527235647087817e+00 7.9073774800698811e+00 1.5603006439483764e+01 1 0 0
365 1 1 3.2811716962589527e-01 5.8582694345997499e+00 1.1334929262284373e+01 1.6591511151972288e+01 0 0 0
280 1 4 -3.7510011683685307e-01 1.3596702483838706e+01 4.8580879465761573e-01 8.9492445232063087e+00 -1 0 0
374 1 4 -2.0428709607255915e-01 5.3785073429107095e+00 1.0770032433133055e+01 1.2963523893264059e+01 0 0 0
371 1 3 4.4323938847174243e-01 5.4662917214557867e+00 1.1756783593652644e+01 1.8674908897371797e+01 0 0 0
141 1 1 3.2155307789183846e-01 6.2160924637402841e+00 1.1826706441609947e+01 4.3742149769811522e+00 0 0 0
150 1 4 -1.8073840524582116e-01 6.6748196952185603e+00 1.2204545821251193e+01 7.4001580562346514e-01 0 0 0
56 1 4 -3.8123170087367630e-01 1.3028095303472867e+01 1.1224767431506046e+00 2.1491181287470646e+01 -1 0 -1
55 1 4 -2.0231831830582170e-01 1.3499679870371537e+01 1.8497782883893108e+00 -1.0169620888394548e+00 -1 0 0
372 1 1 9.8129103871220980e-02 5.1328878491465098e+00 1.1105490529169805e+01 1.5382164698404651e+01 0 0 0
147 1 3 5.0026565093106445e-01 5.6382121578775513e+00 1.1603758132978198e+01 6.4367809025818090e+00 0 0 0
279 1 4 -1.8257251579618683e-01 1.2988707608019599e+01 6.7665850660065496e-01 1.1161169945403786e+01 -1 0 0
148 1 1 8.9463033570356357e-02 5.8554116210353442e+00 1.1903913315308474e+01 2.9977000826849274e+00 0 0 0
369 1 2 -6.9188711519310786e-01 5.0383170936617496e+00 1.1275067245097622e+01 1.7769607115107096e+01 0 0 0
2 1 2 -7.2104691271067944e-01 1.3357323295070938e+01 1.3100054531842251e+00 2.1519653356981960e+00 -1 0 0
272 1 3 6.2280067986223686e-01 1.2924107110670192e+01 4.3348121660462313e-01 8.0300157378395838e+00 -1 0 0
48 1 3 5.6550253987344257e-01 1.2448030161959526e+01 1.1898051399495724e+00 2.0516794954785688e+01 -1 0 0
54 1 2 -2.4215619439742431e-02 1.2067332776892439e+01 8.1842296797530811e-01 2.2512183930468609e+01 -1 0 -1
40 1 2 -2.5897223625004930e-02 1.2222365462730323e+01 4.3059192522157286e+00 3.3481450179310315e+00 -1 0 0
72 1 2 -6.1856612819924683e-01 1.1719969478658770e+01 4.4544540345465737e+00 1.1488520086983611e+01 -1 0 0
73 1 3 4.0530967957515962e-01 1.1973445758992654e+01 4.7279814316073807e+00 1.2545897962730114e+01 -1 0 0
74 1 3 4.7667273517296771e-01 1.2428519121273819e+01 4.0624692103938038e+00 1.0589327107211640e+01 -1 0 0
81 1 4 -2.4502596310847161e-01 1.2330523575520033e+01 4.0767951283319181e+00 8.9876921701029193e+00 -1 0 0
264 1 2 -8.2383822707091138e-03 1.2282324750672952e+01 4.3521110675108758e+00 1.5892625108538230e+01 -1 0 0
297 1 3 4.8410645504950989e-01 1.2449230493759586e+01 5.4932340648292035e+00 3.1187795479222036e-01 -1 0 0
298 1 3 4.9147359208037655e-01 1.2015195194992407e+01 3.8967446276284381e+00 2.3256790984884478e+01 -1 0 0
258 1 3 4.6704148629821507e-01 1.2318808477797376e+01 4.7708802506231773e+00 1.8275986248469604e+01 -1 0 0
305 1 4 -2.2248154488504621e-01 1.1745123217673637e+01 5.0144014080074566e+00 2.1614679866154020e+01 -1 0 0
265 1 4 -1.9776029048883359e-01 1.1813491705370668e+01 4.2763671852398133e+00 1.4671561351568362e+01 0 0 0
33 1 2 -6.7933323608951102e-01 1.3044520398232303e+01 4.0768398232631613e+00 5.9276364166096416e+00 -1 0 0
14 1 4 -3.6035857302618229e-01 2.7210872574683149e+00 1.5578934937750746e+00 2.9778838725889045e+00 0 0 0
29 1 1 3.1560728029415935e-01 1.4083380288910941e+01 4.3443791941144392e+00 4.9756695149736192e+00 -1 0 0
35 1 3 4.7389430229467366e-01 1.3356738293030222e+01 3.9155850959550600e+00 6.9312382894239359e+00 -1 0 0
36 1 1 1.0713770206096149e-01 1.3626953128612895e+01 4.5207355322205736e+00 3.6373946212722865e+00 -1 0 0
38 1 4 -1.8951128715896542e-01 1.4355466850489785e+01 5.4947909433073336e+00 1.5232940479021844e+00 -1 0 0
99 1 1 3.5532383451362848e-01 2.5866076761647716e+00 6.1967366428857784e-01 2.0951056604125139e+01 0 0 -1
100 1 2 -7.6708208735947914e-01 1.1087395060173235e+00 6.0845946556596164e-01 2.0806816546790831e+01 0 0 -1
107 1 2 -1.5791338148923046e-02 2.0584542985599992e+00 4.5875856562186867e-01 2.3434854534069018e+01 0 0 -1
127 1 1 3.0809657807453739e-01 9.6740739278164121e+00 1.1071579252297660e+01 1.0198727965186507e+01 0 0 0
133 1 3 4.6679176076980755e-01 9.1324605025656194e+00 1.0923947991822178e+01 1.2215813803080165e+01 0 0 0
134 1 1 9.6636389338175810e-02 9.1630712033047885e+00 1.1202290578366226e+01 8.8469492805470438e+00 0 0 0
135 1 2 -2.0074560424102324e-02 1.0171830541943368e+01 1.1451366218682859e+01 7.7814641566639491e+00 0 0 0
136 1 4 -2.1899037035401772e-01 9.6411393080524519e+00 1.1749059504338735e+01 6.6242645709517358e+00 0 0 0
209 1 4 -2.3010923884285325e-01 1.1444929343059790e+01 1.2115489152298842e+01 1.0301141964284897e+00 0 0 0
210 1 4 -3.5048619317035173e-01 1.0838898884451899e+01 1.1587625320401871e+01 3.1942563188669411e+00 0 0 0
230 1 3 5.7887798558965531e-01 1.5466858671672927e+00 4.4943468541680809e-01 1.4513407336080274e+01 0 0 0
236 1 2 -1.1003337633290471e-02 1.2860421753218529e+00 7.4316789607321976e-01 1.6496065518899499e+01 0 0 0
237 1 4 -2.2082276371612844e-01 1.7528273207421541e+00 1.0202689211960474e+00 1.7662170973982395e+01 0 0 0
238 1 4 -3.8446805938516376e-01 2.1677711960888741e+00 5.8078888564376552e-01 1.5443561607177948e+01 0 0 0
253 1 1 3.2313855052325069e-01 1.4251409144597989e+01 4.2233603543334421e+00 1.7496812947726742e+01 -1 0 0
257 1 2 -6.7277441325002141e-01 1.3326110958862524e+01 4.5052864937303028e+00 1.8652198021893771e+01 -1 0 0
259 1 3 4.2371715554072970e-01 1.3692463173614543e+01 4.2065433419550988e+00 1.9692863733069192e+01 -1 0 0
260 1 1 1.0232722695249694e-01 1.3751954405826826e+01 4.0702266175829065e+00 1.6161387298345716e+01 -1 0 0
261 1 2 -3.0697982685235020e-02 1.4745857719844080e+01 3.6090644954046880e+00 1.5162255346030872e+01 -1 0 0
262 1 4 -1.7384451985391783e-01 1.4333722367706864e+01 3.5655581430244885e+00 1.3974236355102008e+01 -1 0 0
323 1 1 3.3659370077108031e-01 3.3331655520754677e+00 7.6148425352363724e-01 8.4026176233796850e+00 0 0 0
331 1 2 -1.4792196570594541e-02 2.9838480314689280e+00 3.8385761131509355e-01 1.0814612507472985e+01 0 0 0
332 1 4 -1.9544992598603270e-01 3.3764285107752494e+00 2.8373089990019440e-01 1.2047862808666506e+01 0 0 0
351 1 1 3.5941604880341338e-01 9.6446883745455203e+00 1.1414170185763334e+01 2.2682049670622998e+01 0 0 0
359 1 2 -1.5878333060099718e-02 1.0027543334683113e+01 1.1139250278600223e+01 2.0257984879996190e+01 0 0 0
360 1 4 -1.7264405583732276e-01 9.5711375747616270e+00 1.0798262923669817e+01 1.9116524533665164e+01 0 0 0
433 1 4 -2.1777867015388569e-01 1.0574970302136128e+01 1.1080744101565243e+01 1.3869924598966422e+01 0 0 0
434 1 4 -2.6186091322195704e-01 1.0322055018357501e+01 1.0970407701938669e+01 1.6118784578959840e+01 0 0 0
155 1 1 3.2908382865898211e-01 1.2061446933092229e+01 8.1019084469772871e+00 3.0387530829450640e+00 0 0 0
156 1 2 -6.5912847318029755e-01 1.0614121917688671e+01 8.0814172514456466e+00 3.0251140420104212e+00 1 0 0
161 1 3 4.5174142498793535e-01 1.2668143007458623e+01 8.5646556201265955e+00 1.0399021095323158e+00 0 0 1
163 1 2 -2.4460554919190233e-02 1.1631567379394006e+01 7.6853270667585818e+00 5.4602341475452709e+00 0 0 0
164 1 4 -1.8487702191119798e-01 1.2058183794186515e+01 7.2213545863165223e+00 6.5835811853368513e+00 0 0 0
182 1 4 -3.6374169914209076e-01 1.1176151592523365e+01 7.3317348851869264e+00 9.5533859064965529e+00 0 0 0
379 1 1 3.4772220331044162e-01 1.1485556463794452e+01 7.6907029199628436e+00 1.5077103786012668e+01 0 0 0
383 1 2 -6.5435846935569186e-01 1.2569211326773535e+01 7.4560497042597360e+00 1.4230130250736829e+01 0 0 0
385 1 3 4.3913653114028472e-01 1.2421913260264208e+01 7.5631882245588313e+00 1.3129023158260052e+01 0 0 0
386 1 1 9.1149579174198012e-02 1.1817981947325441e+01 7.8747711193919923e+00 1.6465292718888684e+01 0 0 0
387 1 2 -1.4214077032233756e-02 1.0725094627850901e+01 7.9508778064257495e+00 1.7556246107270670e+01 0 0 0
388 1 4 -1.6487402454198305e-01 1.1061703774532166e+01 8.0603396746508249e+00 1.8840139395853676e+01 0 0 0
405 1 4 -1.9314253097520856e-01 1.0707826423388132e+01 8.3411266115003535e+00 -2.3230942351808836e-01 0 0 1
406 1 4 -2.4552697668546766e-01 1.0311010559208626e+01 7.5323524437247205e+00 2.2354858243049300e+01 0 0 0
20 1 3 4.8251424201216037e-01 7.9211371732700375e-01 4.1982856750383455e+00 1.1975488976887865e+01 0 0 0
26 1 2 4.8667415017437030e-03 9.2120216944034028e-01 4.0254495100468599e+00 9.6664871772633703e+00 0 0 0
27 1 4 -2.0267542864572913e-01 1.5454924668220377e+01 3.8850499171831876e+00 8.4192028348952164e+00 -1 0 0
28 1 4 -2.5271695767876862e-01 1.4724582058494738e+01 4.1426524226359280e+00 1.0568623173455009e+01 -1 0 0
30 1 2 -6.2518060622297644e-01 1.5524455950016430e+01 4.5727168949847616e+00 5.2571224089857278e+00 -1 0 0
31 1 3 4.0538106887743458e-01 1.0312800488522100e+00 4.2387760667059888e+00 6.2657816264851132e+00 0 0 0
32 1 3 4.6370214667037629e-01 1.3568463271974718e+00 4.2094660787485951e+00 4.3429562667676835e+00 0 0 0
37 1 2 -4.7586708272782802e-03 1.4709348342978297e+01 5.0191594904167012e+00 2.6696712437450341e+00 -1 0 0
39 1 4 -2.4449344161157399e-01 1.2030909221486399e+00 4.6821370142696201e+00 2.8107299013539833e+00 0 0 0
58 1 2 -7.3654527842525064e-01 6.0276241253185230e+00 1.4171707555343820e+00 1.7973710964763212e+00 0 0 0
59 1 3 4.9782665299203871e-01 5.9201496950033965e+00 1.7650910183408985e+00 7.9338053012032206e-01 0 0 0
60 1 3 5.4102401337702988e-01 5.3769578086082657e+00 1.1608886810480739e+00 2.6428931013972745e+00 0 0 0
67 1 4 -2.5168350231771353e-01 5.4454569842459080e+00 8.6905733149907816e-01 4.2856034892518418e+00 0 0 0
103 1 2 -6.8037573620618741e-01 3.5949310560788077e+00 5.1452542411561986e-01 2.0007738775178456e+01 0 0 0
104 1 3 5.6004457734251467e-01 4.7536014172789534e+00 7.8415650946462057e-01 2.0470631999915842e+01 0 0 0
105 1 3 4.7099241782516138e-01 3.2730189075614113e+00 7.8200661524526516e-01 1.9017029764235883e+01 0 0 0
106 1 1 1.0590398908969226e-01 3.1432761520758934e+00 6.1751468225693973e-01 2.2310330692226302e+01 0 0 -1
108 1 4 -1.8502524563120368e-01 3.6265286147680853e+00 1.5935881848418880e+00 -1.1583264768586887e-01 0 0 0
110 1 2 -2.6324682358168868e-02 4.5315254831658072e+00 7.1104352757363065e-01 2.2464668900584581e+01 0 0 -1
111 1 4 -2.2126762751504794e-01 5.0565192124692979e+00 8.8562503157839756e-01 2.3629293134574521e+01 0 0 -1
128 1 2 -6.3906384036360930e-01 1.1130349866820273e+01 1.0999563031318013e+01 1.0430745580416005e+01 0 0 0
129 1 3 3.9791536066911537e-01 1.1355387665607191e+01 1.1205751528354492e+01 1.1550975180744892e+01 0 0 0
130 1 3 4.9242714919277453e-01 1.1729264490725958e+01 1.0803392656921670e+01 9.4960566112762823e+00 0 0 0
137 1 4 -2.6124621849105145e-01 1.1494708878105033e+01 1.1173948075207921e+01 7.9158628752452103e+00 0 0 0
157 1 3 4.1699884723905595e-01 1.0070933584871748e+01 8.4280512427833418e+00 2.0761645294955846e+00 1 0 1
174 1 3 6.2407848605647276e-01 1.0474558427738931e+01 7.4054447944356889e+00 8.5896639105575403e+00 1 0 0
180 1 2 -2.0122334355785049e-02 1.0261855979399620e+01 7.5021151225701619e+00 1.0576638885736591e+01 1 0 0
181 1 4 -2.0738982893749269e-01 1.0723743812666589e+01 7.1432644623748747e+00 1.1764327351573167e+01 0 0 0
201 1 2 -6.8344697923414022e-01 1.2583739781312264e+01 1.1253778924801082e+01 4.7890485629846404e+00 0 0 0
202 1 3 5.4612785826727406e-01 1.1552879565604977e+01 1.1434779328694548e+01 4.1127532452075597e+00 0 0 0
203 1 3 4.4074496288063247e-01 1.2844183017582948e+01 1.1104772729075133e+01 5.8436121843314606e+00 0 0 0
204 1 1 8.6168348595055705e-02 1.3240808733835552e+01 1.1638513385953043e+01 2.4901642579285648e+00 0 0 0
208 1 2 -2.6319766009818883e-02 1.1797839169975632e+01 1.1741403251133935e+01 2.1995883812426671e+00 0 0 0
244 1 3 5.5246235742519523e-01 1.4160863675240307e+00 4.8824960781468016e+00 -4.9150196210715158e-01 0 0 0
250 1 2 -1.4585763893194666e-02 6.3392318701286587e-01 3.7810353180717717e+00 2.2232877601165765e+01 0 0 0
251 1 4 -2.2323101273729914e-01 1.4929994323362132e+01 3.9698895649455830e+00 2.1049036376183434e+01 -1 0 0
252 1 4 -3.3596945161836744e-01 1.4470028639142026e+01 3.7920424036390523e+00 2.3282075186419451e+01 -1 0 0
254 1 2 -6.8539868779627011e-01 8.5659387861126390e-01 3.9877125208029209e+00 1.7604856050164614e+01 0 0 0
255 1 3 4.5924160568653388e-01 1.1804042611020034e+00 4.0785743208968990e+00 1.8643062947983129e+01 0 0 0
256 1 3 5.9336248656783674e-01 1.4326740909448730e+00 3.6073204628895539e+00 1.6568353179249662e+01 0 0 0
263 1 4 -3.6288756953873280e-01 1.3528973204266164e+00 3.6974018962879578e+00 1.5393302064655241e+01 0 0 0
282 1 2 -6.4758695439454772e-01 5.1919794902680749e+00 6.5534841512226860e-01 1.4648919190089837e+01 0 0 0
283 1 3 3.9711581212526637e-01 4.6756085462004320e+00 6.9393740673377580e-01 1.3638829350017170e+01 0 0 0
284 1 3 5.7435267512108723e-01 4.6766499274624396e+00 4.1751737278123191e-01 1.5775188078508023e+01 0 0 0
291 1 4 -3.5419331529220599e-01 4.7678333869825025e+00 5.0095702067907533e-01 1.6894975901188008e+01 0 0 0
327 1 2 -6.7844905709622572e-01 4.3123314955601977e+00 7.6669037038444365e-01 7.2705779560406274e+00 0 0 0
328 1 3 4.9066189151873307e-01 5.3350788482671732e+00 3.4178511848152748e-01 7.5493818968654605e+00 0 0 0
329 1 3 4.6629881619399161e-01 3.9053828709404330e+00 9.7120602872116879e-01 6.2657163191713119e+00 0 0 0
330 1 1 9.3760175378123395e-02 3.9217623159360895e+00 5.3974828829641075e-01 9.7151063742599586e+00 0 0 0
334 1 2 2.3729376694718932e-04 5.4098448430436425e+00 6.4673001549777043e-01 9.8186073664909834e+00 0 0 0
335 1 4 -2.0183273998773943e-01 5.9121878324937693e+00 8.6353573413067619e-01 1.0990140339449221e+01 0 0 0
352 1 2 -7.2397433504540065e-01 1.1042910479442895e+01 1.1352864582643875e+01 2.2644476859107577e+01 0 0 0
353 1 3 5.1682028180315176e-01 1.1548958024018877e+01 1.1355528235361502e+01 2.3548798853381758e+01 0 0 -1
354 1 3 5.9785975805901392e-01 1.1565428680367409e+01 1.1123752903551523e+01 2.1501496273922520e+01 0 0 0
361 1 4 -3.6260219705989921e-01 1.1441296134559860e+01 1.1267430614018393e+01 2.0372548923278011e+01 0 0 0
380 1 2 -7.5675455323464436e-01 1.0047244852238348e+01 7.6141430518088100e+00 1.4731131541686773e+01 1 0 0
398 1 3 4.6699932224301349e-01 9.6256335215664315e+00 7.5676869846094501e+00 2.0936072277720331e+01 1 0 0
404 1 2 -7.3682269931763800e-03 9.3428932776502727e+00 7.3828482283115813e+00 2.3254910668736404e+01 1 0 0
421 1 1 3.3748766873226771e-01 1.3282405868790512e+01 1.1331271182741322e+01 1.6361629621272247e+01 0 0 0
425 1 2 -6.7475760408303598e-01 1.2426955982422383e+01 1.1352289687316105e+01 1.7591110265981328e+01 0 0 0
426 1 3 5.0532258217451287e-01 1.1352181086050139e+01 1.1010499960213616e+01 1.7393017552767919e+01 0 0 0
427 1 3 4.7713286089176249e-01 1.2881903933289657e+01 1.1508238015438138e+01 1.8575165650945650e+01 0 0 0
428 1 1 9.3549764271304112e-02 1.2626171302281449e+01 1.1052277795857254e+01 1.5104106555639255e+01 0 0 0
430 1 4 -1.9181950468056808e-01 1.3116487775722575e+01 1.0906027566717764e+01 1.2772324986494981e+01 0 0 0
432 1 2 -1.1737847904022072e-02 1.1118637359424124e+01 1.0957644021047505e+01 1.5041706001905737e+01 0 0 0
381 1 3 5.1051747970127026e-01 9.8225712486542580e+00 7.2233597146755768e+00 1.3781946857224627e+01 1 0 0
389 1 4 -2.2834275645054108e-01 9.4774424127058019e+00 7.7732649505417264e+00 1.7315756095894208e+01 1 0 0
162 1 1 1.0175838688779215e-01 1.2582510273864457e+01 7.9423552809720519e+00 4.3931024956532729e+00 0 0 0
159 1 2 -6.8830233128595453e-01 1.3036679417239510e+01 8.2157223789524210e+00 2.0153382237858302e+00 0 0 1
197 1 1 3.3055223545731038e-01 1.3621937646485554e+01 1.1399082716429021e+01 3.8593529729600959e+00 0 0 0
206 1 4 -2.0797980483661027e-01 1.3881987360961890e+01 1.2181117715120442e+01 2.4664029566211143e-01 0 0 0
336 1 4 -2.5213123926807540e-01 6.2693968640883968e+00 6.4108199999478765e-01 8.8211010507876715e+00 0 0 0
205 1 2 1.0194015246828645e-02 1.4332844145976665e+01 1.1812079089521738e+01 1.4390919428436315e+00 0 0 0
116 1 3 5.1719870880556384e-01 1.3695710348381034e+01 7.3345488204465408e+00 1.0018682504685513e+01 0 0 0
114 1 2 -5.9986595490560901e-01 1.4523299402314054e+01 7.4118663080190448e+00 8.8994544705793377e+00 0 0 0
115 1 3 3.9849804761069180e-01 1.3919009827702780e+01 7.6788184134921789e+00 7.9961513928539176e+00 0 0 0
123 1 4 -3.4611051017824995e-01 1.3726006633745962e+01 7.1718807066644468e+00 1.1140722751613527e+01 0 0 0
160 1 3 5.6404861486837643e-01 1.4159661508488789e+01 8.2726478571237614e+00 2.4750283539882858e+00 0 0 1
166 1 2 -1.0445806013537173e-02 1.4042586333656416e+01 7.9518446523161010e+00 4.5115054724235808e+00 0 0 0
167 1 4 -1.9908581775804096e-01 1.4540564056217290e+01 8.0619786421890396e+00 5.6891943929257387e+00 0 0 0
338 1 2 -6.6703179815867097e-01 1.3449584085738508e+01 7.3243307053730540e+00 2.1078778238216135e+01 0 0 0
339 1 3 4.3566903867527995e-01 1.3267199128984306e+01 7.2181970477298876e+00 1.9976562340144078e+01 0 0 0
340 1 3 5.0970570246978852e-01 1.2795806620918187e+01 7.1159508815090433e+00 2.1977912184138766e+01 0 0 0
347 1 4 -2.3425857497661695e-01 1.2932148882551351e+01 7.0751285298212947e+00 2.3685554815429228e+01 0 0 0
384 1 3 5.0136347844706353e-01 1.3655744699266034e+01 7.4377037713526866e+00 1.4861056874469284e+01 0 0 0
390 1 2 -1.3256948209336955e-02 1.3214896641363584e+01 7.8987277646880738e+00 1.6848116711871835e+01 0 0 0
391 1 4 -1.9302942272705523e-01 1.3538334638039691e+01 8.0524041995571594e+00 1.8090337071230881e+01 0 0 0
168 1 4 -3.3774684181999520e-01 1.4918947207758785e+01 8.1798177610038554e+00 3.4313078442210312e+00 0 0 0
19 1 2 -6.6958278726764042e-01 1.8509613509266971e+00 3.8716611785781172e+00 1.2354523716188964e+01 0 0 0
22 1 1 1.0201680772483974e-01 2.4260784039662298e+00 4.2371554596992320e+00 9.9554782933977268e+00 0 0 0
112 1 4 -3.6615828961358016e-01 5.4792167284366542e+00 7.3444184065593299e-01 2.1338833721869218e+01 0 0 -1
239 1 1 3.5302131457789510e-01 3.5665579213484180e+00 5.2678641457877617e+00 -1.0038505112417577e+00 0 0 1
243 1 2 -6.8399464066547255e-01 2.5652374618344136e+00 5.1050844377248321e+00 -3.4482841490409921e-02 0 0 0
245 1 3 4.6851983543765530e-01 2.8921844695266752e+00 5.1437804751211988e+00 9.8559140042813853e-01 0 0 0
246 1 1 1.0001226318920856e-01 2.0595843476904854e+00 4.0808789854568301e+00 2.2398082241823264e+01 0 0 0
429 1 2 -2.9373413180656401e-02 1.3526394271909833e+01 1.1018084978846151e+01 1.3976210426911310e+01 0 0 0
57 1 1 3.2781220227817864e-01 7.4939960210833210e+00 1.2628852095073255e+00 2.0756184919204395e+00 0 0 0
65 1 2 -1.5237902676827814e-02 6.7535609778115164e+00 8.2295289006595307e-01 4.4940919819109277e+00 0 0 0
281 1 1 3.2986679094397775e-01 6.5983804100786250e+00 6.5418633137556448e-01 1.4692585683129234e+01 0 0 0
287 1 3 5.0744764281329724e-01 7.0288702576570952e+00 5.4522694548750450e-01 1.2591904181101405e+01 0 0 0
289 1 2 -1.5820198538880437e-02 6.1951934546918874e+00 5.4841366553670123e-01 1.7123578467272090e+01 0 0 0
63 1 3 4.2056210443896169e-01 8.2834486898606894e+00 1.5638984570979144e+00 8.2112846387562222e-02 0 0 0
64 1 1 1.0747116137313066e-01 7.8452470355109458e+00 1.0054307085387093e+00 3.4311631732094199e+00 0 0 0
66 1 4 -1.8465727384885200e-01 7.1824755778780016e+00 1.0604195608281319e+00 5.7061314043987341e+00 0 0 0
196 1 4 -2.5488571010055805e-01 1.4312873194562506e+01 1.0666442173619622e+01 9.8653062940538803e+00 0 0 0
288 1 1 9.1899851321060266e-02 7.1185011169539916e+00 6.7044885703852142e-01 1.6003110120694675e+01 0 0 0
290 1 4 -1.8800512550430107e-01 6.5745300667519126e+00 6.7746894093654397e-01 1.8300682507431713e+01 0 0 0
419 1 4 -1.7415903763385321e-01 1.4240917212950635e+01 1.0828729851005962e+01 2.0213601994766968e+01 0 0 0
420 1 4 -3.4566166364003603e-01 1.3978853995186233e+01 1.0439618642684479e+01 2.2508102758964466e+01 0 0 0
195 1 4 -1.9095635881228068e-01 1.4622057559955158e+01 1.0909821873772618e+01 7.6350981071634791e+00 0 0 0
422 1 2 -6.8578891552867460e-01 1.4682746129963913e+01 1.1462670503093905e+01 1.6315661015029207e+01 0 0 0
198 1 2 -6.4089630942254339e-01 1.5065421416131231e+01 1.1313703119700319e+01 4.1843499347773871e+00 0 0 0
207 1 4 -2.4478458955491936e-01 1.5599545936012783e+01 1.1775692205731801e+01 1.7592109203274209e+00 0 0 0
412 1 3 5.8915452730180706e-01 1.4741810684938448e+01 1.0466408228831064e+01 2.3437038462074657e+01 0 0 -1
392 1 4 -3.3679255928686497e-01 1.4233037740763987e+01 7.5029617288224637e+00 1.5991431212311454e+01 0 0 0