ITEM: TIMESTEP
0
ITEM: NUMBER OF ATOMS
336
ITEM: BOX BOUNDS xy xz yz pp pp pp
0.0000000000000000e+00 2.6364000320399999e+01 0.0000000000000000e+00
0.0000000000000000e+00 1.1574000358599999e+01 0.0000000000000000e+00
0.0000000000000000e+00 1.0708999633800000e+01 0.0000000000000000e+00
ITEM: ATOMS id type xs ys zs
1 1 0.0930182 0.352353 0.445493
2 1 0.906961 0.647626 0.554505
3 1 0.156977 0.647642 0.945493
4 1 0.343021 0.352356 0.054507
5 1 0.90697 0.852365 0.0545059
6 1 0.0930217 0.147644 0.945493
7 1 0.34303 0.147635 0.554506
8 1 0.156981 0.852354 0.445493
9 1 0.593009 0.352345 0.445491
10 1 0.406989 0.647653 0.554509
11 1 0.656988 0.647653 0.945491
12 1 0.843005 0.352341 0.0545102
13 1 0.406995 0.852341 0.0545102
14 1 0.593012 0.147653 0.945491
15 1 0.843011 0.147653 0.554509
16 1 0.656991 0.852344 0.445491
17 1 0.0246422 0.231392 0.339686
18 1 0.975364 0.768617 0.660344
19 1 0.225359 0.76861 0.839681
20 1 0.274641 0.231391 0.160318
21 1 0.975361 0.731388 0.160332
22 1 0.0246413 0.26861 0.839682
23 1 0.274639 0.268613 0.660329
24 1 0.225358 0.731392 0.339685
25 1 0.524644 0.231394 0.339696
26 1 0.475356 0.768607 0.660306
27 1 0.725356 0.768607 0.839694
28 1 0.774645 0.231396 0.160301
29 1 0.475355 0.731396 0.160301
30 1 0.524644 0.268607 0.839694
31 1 0.774644 0.268607 0.660305
32 1 0.725356 0.731394 0.339696
33 1 0.0751842 0.376658 0.208389
34 1 0.924812 0.62334 0.791606
35 1 0.174815 0.623341 0.70839
36 1 0.325185 0.376658 0.29161
37 1 0.924814 0.876659 0.291608
38 1 0.0751851 0.123341 0.70839
39 1 0.325186 0.12334 0.791608
40 1 0.174815 0.876658 0.20839
41 1 0.575182 0.376656 0.208388
42 1 0.424817 0.623343 0.791612
43 1 0.674817 0.623343 0.708388
44 1 0.825181 0.376654 0.291614
45 1 0.424819 0.876654 0.291614
46 1 0.575183 0.123343 0.708388
47 1 0.825183 0.123343 0.791612
48 1 0.674818 0.876656 0.208388
49 2 0.126036 0.296317 0.428292
50 2 0.873961 0.703684 0.571715
51 2 0.123963 0.703683 0.92829
52 2 0.376036 0.296317 0.0717091
53 2 0.873962 0.796316 0.0717122
54 2 0.126036 0.203683 0.928291
55 2 0.376038 0.203684 0.571712
56 2 0.123964 0.796317 0.428292
57 2 0.626034 0.296317 0.428296
58 2 0.373965 0.703683 0.571705
59 2 0.623965 0.703683 0.928295
60 2 0.876033 0.296317 0.0717014
61 2 0.373967 0.796317 0.0717015
62 2 0.626035 0.203683 0.928295
63 2 0.876034 0.203683 0.571704
64 2 0.623966 0.796317 0.428297
65 2 0.103617 0.400475 0.53021
66 2 0.896382 0.599515 0.469792
67 2 0.146383 0.599522 0.0302098
68 2 0.353617 0.400477 0.96979
69 2 0.896382 0.900481 0.969791
70 2 0.103617 0.0995231 0.0302099
71 2 0.353618 0.099519 0.469791
72 2 0.146383 0.900476 0.53021
73 2 0.603616 0.400469 0.530211
74 2 0.396384 0.59953 0.469789
75 2 0.646384 0.599529 0.0302112
76 2 0.853616 0.400466 0.969788
77 2 0.396384 0.900466 0.969788
78 2 0.603616 0.0995293 0.0302112
79 2 0.853616 0.0995298 0.469789
80 2 0.646384 0.900469 0.530211
81 2 0.986003 0.198132 0.352932
82 2 0.0139979 0.801867 0.647068
83 2 0.263997 0.801868 0.852932
84 2 0.236003 0.198132 0.147068
85 2 0.0139976 0.698133 0.147068
86 2 0.986003 0.301868 0.852932
87 2 0.236002 0.301867 0.647068
88 2 0.263997 0.698132 0.352932
89 2 0.486003 0.198132 0.352931
90 2 0.513997 0.801868 0.647069
91 2 0.763997 0.801868 0.852931
92 2 0.736003 0.198131 0.147069
93 2 0.513997 0.698131 0.147069
94 2 0.486003 0.301868 0.852931
95 2 0.736003 0.301868 0.647069
96 2 0.763997 0.698132 0.352931
97 2 0.0483806 0.156425 0.317849
98 2 0.951619 0.843574 0.68215
99 2 0.201619 0.843575 0.81785
100 2 0.29838 0.156425 0.18215
101 2 0.951619 0.656426 0.18215
102 2 0.0483806 0.343575 0.81785
103 2 0.298381 0.343574 0.68215
104 2 0.201619 0.656425 0.31785
105 2 0.54838 0.156423 0.317849
106 2 0.451619 0.843577 0.682151
107 2 0.70162 0.843576 0.817849
108 2 0.798381 0.156423 0.182151
109 2 0.45162 0.656423 0.182151
110 2 0.54838 0.343577 0.817849
111 2 0.798381 0.343577 0.682151
112 2 0.70162 0.656423 0.317849
113 2 0.107193 0.32034 0.183375
114 2 0.892804 0.679663 0.816626
115 2 0.142807 0.679661 0.683375
116 2 0.357193 0.320339 0.316625
117 2 0.892805 0.820338 0.316626
118 2 0.107193 0.179661 0.683375
119 2 0.357194 0.179662 0.816625
120 2 0.142807 0.82034 0.183375
121 2 0.607191 0.320342 0.183376
122 2 0.392809 0.679659 0.816624
123 2 0.642809 0.679659 0.683376
124 2 0.85719 0.320343 0.316623
125 2 0.39281 0.820343 0.316623
126 2 0.607191 0.179659 0.683376
127 2 0.857191 0.179659 0.816624
128 2 0.642809 0.820342 0.183376
129 2 0.0737386 0.440509 0.132443
130 2 0.92626 0.559486 0.867554
131 2 0.176261 0.55949 0.632443
132 2 0.323739 0.440509 0.367557
133 2 0.92626 0.940512 0.367555
134 2 0.0737389 0.0594906 0.632443
135 2 0.323739 0.0594886 0.867555
136 2 0.176261 0.940509 0.132443
137 2 0.573738 0.440505 0.132441
138 2 0.426262 0.559494 0.867559
139 2 0.676262 0.559494 0.632441
140 2 0.823737 0.440504 0.36756
141 2 0.426263 0.940504 0.36756
142 2 0.573738 0.0594938 0.632441
143 2 0.823738 0.0594941 0.867559
144 2 0.676262 0.940505 0.132441
145 3 0.0881629 0.437708 0.334077
146 3 0.911839 0.562287 0.665941
147 3 0.161837 0.562291 0.834073
148 3 0.338163 0.437709 0.165926
149 3 0.911838 0.937711 0.165934
150 3 0.0881627 0.062291 0.834074
151 3 0.338162 0.0622892 0.665933
152 3 0.161837 0.937708 0.334075
153 3 0.588164 0.437708 0.334084
154 3 0.411836 0.562292 0.665917
155 3 0.661836 0.562292 0.834082
156 3 0.838165 0.437708 0.165911
157 3 0.411835 0.937708 0.165911
158 3 0.588164 0.0622922 0.834082
159 3 0.838164 0.0622921 0.665917
160 3 0.661836 0.937708 0.334085
161 3 0.0453713 0.275431 0.467224
162 3 0.95463 0.724614 0.53276
163 3 0.204629 0.724579 0.967227
164 3 0.295371 0.275424 0.0327742
165 3 0.954629 0.775405 0.032768
166 3 0.0453711 0.224576 0.967226
167 3 0.295371 0.224594 0.532768
168 3 0.204629 0.775428 0.467225
169 3 0.545372 0.275448 0.467221
170 3 0.454628 0.724556 0.532778
171 3 0.704628 0.724556 0.967222
172 3 0.795373 0.275457 0.0327791
173 3 0.454627 0.775457 0.0327792
174 3 0.545372 0.224557 0.967222
175 3 0.795372 0.224555 0.532778
176 3 0.704628 0.775449 0.467221
177 3 0.0256927 0.302606 0.214367
178 3 0.974308 0.697394 0.785632
179 3 0.224307 0.697395 0.714367
180 3 0.275693 0.302606 0.285632
181 3 0.974308 0.802607 0.285631
182 3 0.0256925 0.197395 0.714367
183 3 0.275692 0.197395 0.785633
184 3 0.224307 0.802605 0.214367
185 3 0.525694 0.302606 0.214366
186 3 0.474306 0.697395 0.785634
187 3 0.724306 0.697395 0.714366
188 3 0.775694 0.302606 0.285634
189 3 0.474306 0.802606 0.285634
190 3 0.525694 0.197395 0.714366
191 3 0.775694 0.197395 0.785634
192 3 0.724306 0.802606 0.214366
193 3 0.11848 0.558612 0.334327
194 3 0.881524 0.441399 0.66567
195 3 0.131521 0.441391 0.834328
196 3 0.368479 0.55861 0.165673
197 3 0.881522 0.058605 0.165671
198 3 0.118479 0.94139 0.834328
199 3 0.368478 0.941395 0.665671
200 3 0.131521 0.0586109 0.334327
201 3 0.618481 0.558618 0.334325
202 3 0.381519 0.441384 0.665674
203 3 0.631519 0.441384 0.834326
204 3 0.868482 0.558622 0.165676
205 3 0.381518 0.0586216 0.165676
206 3 0.618481 0.941384 0.834326
207 3 0.868481 0.941383 0.665675
208 3 0.631519 0.0586182 0.334325
209 3 0.00373289 0.356487 0.531785
210 3 0.996283 0.643487 0.468195
211 3 0.24627 0.643507 0.031789
212 3 0.253731 0.356491 0.968212
213 3 0.996276 0.856501 0.968204
214 3 0.00373046 0.143509 0.0317879
215 3 0.253724 0.143499 0.468205
216 3 0.246268 0.856489 0.531786
217 3 0.503739 0.356478 0.531779
218 3 0.496262 0.643519 0.46822
219 3 0.746263 0.643519 0.0317802
220 3 0.753742 0.356474 0.968224
221 3 0.496258 0.856474 0.968224
222 3 0.503737 0.143519 0.0317803
223 3 0.753738 0.14352 0.46822
224 3 0.746261 0.856478 0.531778
225 3 0.978749 0.390357 0.203779
226 3 0.0212551 0.609639 0.796221
227 3 0.271253 0.609642 0.703779
228 3 0.228748 0.390357 0.296221
229 3 0.0212531 0.890358 0.296221
230 3 0.978748 0.109642 0.703779
231 3 0.228746 0.10964 0.796221
232 3 0.271252 0.890357 0.203779
233 3 0.478751 0.390355 0.203779
234 3 0.52125 0.609644 0.796222
235 3 0.77125 0.609644 0.703778
236 3 0.728752 0.390353 0.296222
237 3 0.521248 0.890353 0.296222
238 3 0.47875 0.109644 0.703778
239 3 0.72875 0.109644 0.796222
240 3 0.771249 0.890355 0.203779
241 4 0.119261 0.618415 0.233762
242 4 0.880741 0.381589 0.766247
243 4 0.130739 0.381586 0.73376
244 4 0.369261 0.618414 0.266239
245 4 0.88074 0.118413 0.266244
246 4 0.119261 0.881586 0.733761
247 4 0.36926 0.881587 0.766243
248 4 0.130739 0.118415 0.233762
249 4 0.619263 0.618417 0.233769
250 4 0.380737 0.381583 0.766233
251 4 0.630738 0.381583 0.733767
252 4 0.869264 0.618418 0.266228
253 4 0.380736 0.118418 0.266228
254 4 0.619262 0.881583 0.733767
255 4 0.869263 0.881583 0.766232
256 4 0.630737 0.118417 0.233769
257 4 0.138781 0.590174 0.437272
258 4 0.861218 0.409827 0.562715
259 4 0.111219 0.409826 0.937275
260 4 0.388781 0.590174 0.0627255
261 4 0.861219 0.0901735 0.0627195
262 4 0.138781 0.909826 0.937275
263 4 0.388781 0.909826 0.56272
264 4 0.111219 0.0901744 0.437273
265 4 0.63878 0.590175 0.437264
266 4 0.36122 0.409825 0.562734
267 4 0.61122 0.409825 0.937266
268 4 0.888779 0.590175 0.0627405
269 4 0.361221 0.0901754 0.0627404
270 4 0.63878 0.909825 0.937266
271 4 0.88878 0.909825 0.562735
272 4 0.61122 0.090175 0.437264
273 4 0.957434 0.320551 0.533038
274 4 0.0425676 0.679449 0.466962
275 4 0.292567 0.679449 0.0330379
276 4 0.207434 0.320551 0.966962
277 4 0.0425672 0.820551 0.966962
278 4 0.957434 0.179449 0.033038
279 4 0.207433 0.179449 0.466962
280 4 0.292566 0.820551 0.533038
281 4 0.457436 0.320553 0.533038
282 4 0.542565 0.679448 0.466962
283 4 0.792565 0.679448 0.033038
284 4 0.707437 0.320554 0.966962
285 4 0.542563 0.820554 0.966962
286 4 0.457435 0.179448 0.033038
287 4 0.707435 0.179447 0.466962
288 4 0.792564 0.820553 0.533038
289 4 0.0188906 0.435327 0.608296
290 4 0.981109 0.564672 0.391703
291 4 0.231109 0.564673 0.108297
292 4 0.268891 0.435327 0.891703
293 4 0.981109 0.935328 0.891703
294 4 0.0188908 0.0646727 0.108297
295 4 0.268891 0.0646721 0.391703
296 4 0.231109 0.935327 0.608297
297 4 0.51889 0.435326 0.608295
298 4 0.48111 0.564674 0.391704
299 4 0.73111 0.564674 0.108296
300 4 0.768889 0.435324 0.891706
301 4 0.481111 0.935324 0.891706
302 4 0.51889 0.0646738 0.108296
303 4 0.76889 0.064674 0.391705
304 4 0.73111 0.935325 0.608295
305 4 0.936062 0.360512 0.25194
306 4 0.0639364 0.639486 0.748062
307 4 0.313938 0.639488 0.75194
308 4 0.186062 0.360512 0.24806
309 4 0.063937 0.860513 0.248061
310 4 0.936062 0.139488 0.75194
311 4 0.186063 0.139487 0.748061
312 4 0.313938 0.860512 0.25194
313 4 0.436061 0.360511 0.251941
314 4 0.563938 0.639489 0.748059
315 4 0.813938 0.639489 0.751941
316 4 0.686061 0.36051 0.248058
317 4 0.563939 0.860511 0.248058
318 4 0.436062 0.139489 0.751941
319 4 0.686062 0.139489 0.748059
320 4 0.813939 0.860511 0.251941
321 4 0.983305 0.480527 0.133986
322 4 0.0166945 0.519479 0.86601
323 4 0.266695 0.519474 0.633987
324 4 0.233305 0.480526 0.366014
325 4 0.0166945 0.980523 0.366012
326 4 0.983305 0.0194739 0.633987
327 4 0.233305 0.0194762 0.866012
328 4 0.266695 0.980527 0.133986
329 4 0.483305 0.480531 0.133983
330 4 0.516695 0.51947 0.866016
331 4 0.766695 0.51947 0.633984
332 4 0.733305 0.480533 0.366018
333 4 0.516695 0.980533 0.366018
334 4 0.483305 0.0194697 0.633984
335 4 0.733305 0.0194695 0.866016
336 4 0.766695 0.980531 0.133983
ITEM: TIMESTEP
1000
ITEM: NUMBER OF ATOMS
336
ITEM: BOX BOUNDS xy xz yz pp pp pp
-1.7164629787764394e+00 2.8027472322935417e+01 3.4919927564829208e-02
-1.0425191770378577e+00 1.2709067402895522e+01 -8.7910903805877072e-02
-5.9097298752625793e-01 1.1299972621326209e+01 9.2547867257676983e-02
ITEM: ATOMS id type xs ys zs
1 1 0.0740897 0.425172 0.418081
2 1 0.914309 0.620532 0.547623
3 1 0.180471 0.616087 0.915893
4 1 0.351467 0.358065 0.136563
5 1 0.918019 0.914024 0.086998
6 1 0.0634113 0.111972 0.940445
7 1 0.331952 0.104995 0.605118
8 1 0.175886 0.92297 0.416446
9 1 0.580929 0.342846 0.419938
10 1 0.437944 0.606464 0.561528
11 1 0.664057 0.580001 0.936039
12 1 0.816004 0.384525 0.0605042
13 1 0.434311 0.861964 0.0619967
14 1 0.578713 0.11001 0.916978
15 1 0.81731 0.127405 0.563098
16 1 0.680037 0.84597 0.446005
17 1 0.0527494 0.278476 0.297914
18 1 0.962309 0.739425 0.662758
19 1 0.212802 0.740699 0.774305
20 1 0.279113 0.287884 0.214789
21 1 0.962828 0.804137 0.218118
22 1 0.0348067 0.244402 0.798157
23 1 0.290912 0.217449 0.73231
24 1 0.205711 0.784322 0.31228
25 1 0.535893 0.256027 0.26984
26 1 0.464799 0.726924 0.712233
27 1 0.696541 0.718909 0.814711
28 1 0.785129 0.284168 0.225403
29 1 0.476638 0.74722 0.209804
30 1 0.530905 0.244719 0.821402
31 1 0.78074 0.214848 0.71505
32 1 0.722575 0.717992 0.339229
33 1 0.0663628 0.439929 0.200927
34 1 0.927536 0.586932 0.762406
35 1 0.189911 0.569536 0.708812
36 1 0.329301 0.402095 0.335691
37 1 0.944784 0.977471 0.279834
38 1 0.0824161 0.106539 0.72592
39 1 0.305597 0.0441505 0.806157
40 1 0.191109 0.940806 0.206249
41 1 0.562343 0.428046 0.226178
42 1 0.439867 0.556847 0.779664
43 1 0.674017 0.556482 0.718028
44 1 0.817853 0.450989 0.264509
45 1 0.419888 0.86647 0.279428
46 1 0.552548 0.09018 0.712071
47 1 0.817977 0.0550596 0.767092
48 1 0.699751 0.885394 0.240762
49 2 0.109583 0.41293 0.438469
50 2 0.881798 0.662286 0.538145
51 2 0.144786 0.644608 0.916431
52 2 0.369258 0.291761 0.165961
53 2 0.884225 0.879107 0.103098
54 2 0.088655 0.134379 0.00464766
55 2 0.365488 0.136425 0.6235
56 2 0.140661 0.905557 0.423624
57 2 0.612722 0.312448 0.394239
58 2 0.402255 0.632805 0.547679
59 2 0.629123 0.604269 0.938217
60 2 0.850334 0.350592 0.0613624
61 2 0.408878 0.836406 0.996827
62 2 0.610786 0.142185 0.889417
63 2 0.848494 0.17595 0.581731
64 2 0.647684 0.814145 0.423455
65 2 0.0652752 0.465947 0.495854
66 2 0.916183 0.577971 0.469141
67 2 0.182073 0.58573 0.00201707
68 2 0.368236 0.3822 0.0600241
69 2 0.919691 0.942673 0.998447
70 2 0.0436814 0.057841 0.986075
71 2 0.336263 0.0809107 0.519833
72 2 0.18063 0.964817 0.492982
73 2 0.583155 0.358451 0.510056
74 2 0.448693 0.572429 0.479354
75 2 0.668393 0.539389 0.01422
76 2 0.808566 0.403183 0.972172
77 2 0.447581 0.921832 0.013139
78 2 0.587318 0.0723072 0.998669
79 2 0.819765 0.104908 0.470556
80 2 0.675873 0.879964 0.528015
81 2 0.0314725 0.212442 0.291085
82 2 0.991811 0.786245 0.659951
83 2 0.238413 0.796368 0.759537
84 2 0.244274 0.266332 0.192982
85 2 0.988048 0.745839 0.222664
86 2 0.00738981 0.29942 0.780099
87 2 0.272407 0.287081 0.747568
88 2 0.227165 0.7166 0.31507
89 2 0.510365 0.204527 0.250196
90 2 0.485053 0.791811 0.731123
91 2 0.724071 0.774793 0.815279
92 2 0.75677 0.236943 0.24431
93 2 0.509463 0.709119 0.226474
94 2 0.503005 0.295289 0.828348
95 2 0.752452 0.266486 0.728996
96 2 0.750717 0.662647 0.347923
97 2 0.0859419 0.250715 0.276068
98 2 0.935078 0.788874 0.684871
99 2 0.180528 0.776811 0.753711
100 2 0.293923 0.223308 0.248713
101 2 0.933023 0.773153 0.258753
102 2 0.0648646 0.290674 0.792764
103 2 0.32674 0.231443 0.757178
104 2 0.170234 0.760799 0.303689
105 2 0.567692 0.23162 0.238989
106 2 0.431105 0.753441 0.723636
107 2 0.666416 0.763692 0.799693
108 2 0.815068 0.238158 0.245475
109 2 0.451515 0.6873 0.221103
110 2 0.559642 0.29087 0.792776
111 2 0.812989 0.254047 0.730477
112 2 0.69342 0.671523 0.313655
113 2 0.100169 0.432931 0.175075
114 2 0.898762 0.619371 0.808364
115 2 0.156068 0.589028 0.67263
116 2 0.347573 0.340826 0.374018
117 2 0.918731 0.96043 0.344254
118 2 0.112815 0.150566 0.707597
119 2 0.33448 0.0604059 0.859064
120 2 0.157935 0.934819 0.160906
121 2 0.594173 0.405428 0.187654
122 2 0.408594 0.569112 0.819865
123 2 0.639403 0.57498 0.686692
124 2 0.852348 0.429139 0.289818
125 2 0.396925 0.808907 0.298888
126 2 0.585722 0.11747 0.680194
127 2 0.849287 0.08506 0.803177
128 2 0.668393 0.867505 0.192215
129 2 0.0551511 0.488066 0.134688
130 2 0.939275 0.525954 0.816399
131 2 0.202848 0.508346 0.655432
132 2 0.328513 0.458509 0.399833
133 2 0.956786 0.0426595 0.327168
134 2 0.0864915 0.0481232 0.665043
135 2 0.288518 0.981359 0.843212
136 2 0.211091 0.994983 0.152159
137 2 0.554142 0.499945 0.187073
138 2 0.456003 0.494252 0.821233
139 2 0.686315 0.500331 0.656276
140 2 0.811778 0.515981 0.311632
141 2 0.411324 0.923353 0.34068
142 2 0.542516 0.0330053 0.650663
143 2 0.817198 0.987838 0.817316
144 2 0.71456 0.947653 0.185567
145 3 0.071709 0.495146 0.316473
146 3 0.910243 0.545403 0.649558
147 3 0.181979 0.530166 0.830525
148 3 0.357706 0.435644 0.236588
149 3 0.920919 0.00218294 0.165624
150 3 0.089974 0.0620637 0.847988
151 3 0.325148 0.0171002 0.688994
152 3 0.182588 0.995815 0.319859
153 3 0.573523 0.443302 0.356318
154 3 0.433809 0.525939 0.653679
155 3 0.667451 0.505936 0.838192
156 3 0.818434 0.476067 0.135035
157 3 0.406759 0.905852 0.157477
158 3 0.563532 0.0346928 0.825068
159 3 0.82283 0.0332039 0.640392
160 3 0.688352 0.929109 0.359191
161 3 0.0523256 0.319256 0.419226
162 3 0.950184 0.700542 0.541712
163 3 0.210081 0.708337 0.902594
164 3 0.306556 0.312405 0.104557
165 3 0.950445 0.823189 0.0919166
166 3 0.0318173 0.203191 0.919221
167 3 0.299504 0.193493 0.605204
168 3 0.204508 0.823861 0.432997
169 3 0.545766 0.260071 0.398855
170 3 0.467417 0.700185 0.584025
171 3 0.69337 0.675622 0.93438
172 3 0.785035 0.297356 0.093074
173 3 0.469553 0.77689 0.0834656
174 3 0.545424 0.197176 0.937771
175 3 0.780692 0.201971 0.584564
176 3 0.713875 0.757129 0.457854
177 3 0.0400313 0.34282 0.191373
178 3 0.965895 0.66712 0.76292
179 3 0.22092 0.660221 0.685606
180 3 0.279635 0.359114 0.311492
181 3 0.978746 0.891384 0.292046
182 3 0.041378 0.173967 0.696282
183 3 0.275929 0.138869 0.818446
184 3 0.217952 0.842836 0.202631
185 3 0.5264 0.350821 0.198063
186 3 0.468005 0.648811 0.807675
187 3 0.701414 0.651647 0.709097
188 3 0.787552 0.367239 0.313456
189 3 0.467761 0.822566 0.302206
190 3 0.517728 0.175243 0.716623
191 3 0.780883 0.128868 0.801341
192 3 0.730822 0.793623 0.238471
193 3 0.113311 0.572838 0.30842
194 3 0.863869 0.489679 0.67077
195 3 0.132804 0.481404 0.836397
196 3 0.344984 0.548031 0.207493
197 3 0.87287 0.0568093 0.182645
198 3 0.100896 0.945872 0.860133
199 3 0.369069 0.948055 0.693408
200 3 0.143142 0.0783333 0.310811
201 3 0.614395 0.51702 0.376165
202 3 0.390283 0.455745 0.638993
203 3 0.624088 0.439575 0.832745
204 3 0.864924 0.532118 0.110112
205 3 0.402883 0.0233201 0.158546
206 3 0.600165 0.950933 0.806087
207 3 0.869762 0.979247 0.61767
208 3 0.643927 0.996992 0.341834
209 3 0.00172738 0.3006 0.456874
210 3 0.995961 0.671107 0.47904
211 3 0.258581 0.69766 0.960815
212 3 0.27661 0.372772 0.0123159
213 3 0.994449 0.833447 0.015159
214 3 0.980435 0.191033 0.961816
215 3 0.252308 0.184791 0.537888
216 3 0.25368 0.836299 0.485947
217 3 0.499994 0.266091 0.468342
218 3 0.517071 0.705348 0.533778
219 3 0.741318 0.66126 0.99805
220 3 0.735627 0.299531 0.0392572
221 3 0.514385 0.804821 0.017793
222 3 0.504295 0.152252 0.00595404
223 3 0.73043 0.175119 0.53425
224 3 0.759644 0.798852 0.513856
225 3 0.9872 0.369387 0.197236
226 3 0.014059 0.613239 0.762013
227 3 0.27346 0.630974 0.69038
228 3 0.241317 0.442975 0.298853
229 3 0.0277669 0.928784 0.249693
230 3 0.997895 0.10863 0.660655
231 3 0.222758 0.117807 0.816641
232 3 0.27109 0.865978 0.191754
233 3 0.476063 0.393811 0.208651
234 3 0.520379 0.62008 0.833274
235 3 0.752479 0.618164 0.685096
236 3 0.737653 0.409682 0.327503
237 3 0.504903 0.909933 0.302228
238 3 0.467962 0.13478 0.714065
239 3 0.730616 0.0831741 0.815345
240 3 0.78222 0.826539 0.241528
241 4 0.131067 0.591576 0.210772
242 4 0.849373 0.474615 0.772772
243 4 0.116984 0.447964 0.743182
244 4 0.346148 0.608916 0.290046
245 4 0.863175 0.0814921 0.282478
246 4 0.106251 0.89575 0.769955
247 4 0.383372 0.919038 0.790232
248 4 0.129208 0.105413 0.213134
249 4 0.623668 0.575658 0.293351
250 4 0.377231 0.401755 0.723303
251 4 0.618658 0.387665 0.741914
252 4 0.884811 0.583015 0.186361
253 4 0.417107 0.067773 0.245681
254 4 0.605718 0.920471 0.703528
255 4 0.888712 0.925927 0.69636
256 4 0.63383 0.0257673 0.24292
257 4 0.13413 0.592019 0.398142
258 4 0.844532 0.448486 0.588034
259 4 0.11194 0.478914 0.931326
260 4 0.344534 0.576769 0.104949
261 4 0.848886 0.0784119 0.0933654
262 4 0.119233 0.9177 0.952661
263 4 0.390088 0.928891 0.600184
264 4 0.120938 0.101977 0.398852
265 4 0.642272 0.508447 0.46066
266 4 0.371761 0.450576 0.543872
267 4 0.60386 0.417351 0.927252
268 4 0.881757 0.51579 0.0121376
269 4 0.383808 0.0664706 0.0735784
270 4 0.631624 0.946843 0.881236
271 4 0.888101 0.985594 0.520252
272 4 0.616493 0.00120641 0.426443
273 4 0.9763 0.244733 0.399947
274 4 0.0324699 0.709218 0.51867
275 4 0.288523 0.756534 0.926341
276 4 0.238767 0.335927 0.980098
277 4 0.0266909 0.769141 0.0202036
278 4 0.947109 0.22941 0.905193
279 4 0.216966 0.215394 0.587627
280 4 0.287357 0.781206 0.454479
281 4 0.471063 0.196783 0.462979
282 4 0.540776 0.782388 0.552733
283 4 0.774147 0.717969 0.968104
284 4 0.705618 0.250758 0.0934386
285 4 0.551569 0.760043 0.0434866
286 4 0.46404 0.160286 0.963993
287 4 0.69703 0.180008 0.602205
288 4 0.793674 0.741924 0.501959
289 4 0.985718 0.345793 0.545646
290 4 0.99491 0.612395 0.394448
291 4 0.266997 0.629528 0.0365534
292 4 0.29293 0.444127 0.955482
293 4 0.99359 0.895529 0.933819
294 4 0.973664 0.151871 0.057598
295 4 0.253966 0.161529 0.432542
296 4 0.261479 0.893143 0.569518
297 4 0.491997 0.344375 0.527666
298 4 0.533625 0.630695 0.479215
299 4 0.740031 0.615711 0.0914566
300 4 0.727303 0.355186 0.954334
301 4 0.514138 0.86941 0.938606
302 4 0.511056 0.114379 0.105752
303 4 0.724591 0.162272 0.429037
304 4 0.760344 0.881884 0.562934
305 4 0.959007 0.303727 0.165319
306 4 0.0485751 0.658931 0.804292
307 4 0.302113 0.700126 0.665772
308 4 0.217603 0.4466 0.207401
309 4 0.0547874 0.863311 0.212988
310 4 0.957351 0.145268 0.666005
311 4 0.195688 0.190948 0.823801
312 4 0.298525 0.792282 0.176902
313 4 0.442083 0.334408 0.195195
314 4 0.551283 0.683561 0.821493
315 4 0.78536 0.678084 0.705144
316 4 0.706826 0.348286 0.352398
317 4 0.544572 0.886886 0.27161
318 4 0.433317 0.192097 0.694256
319 4 0.702628 0.135972 0.871219
320 4 0.811443 0.75687 0.24991
321 4 0.975991 0.459714 0.197156
322 4 0.0138779 0.519485 0.758948
323 4 0.285392 0.544338 0.713528
324 4 0.234734 0.502988 0.379201
325 4 0.0361366 0.0205503 0.248292
326 4 0.00277015 0.0238253 0.62235
327 4 0.210279 0.0282981 0.803864
328 4 0.285882 0.952365 0.20212
329 4 0.470337 0.482789 0.2387
330 4 0.5291 0.530531 0.860728
331 4 0.76055 0.53356 0.645706
332 4 0.729873 0.503401 0.310351
333 4 0.49368 0.998133 0.325689
334 4 0.463455 0.040234 0.715046
335 4 0.723353 0.995291 0.783823
336 4 0.794256 0.918823 0.236307
ITEM: TIMESTEP
2000
ITEM: NUMBER OF ATOMS
336
ITEM: BOX BOUNDS xy xz yz pp pp pp
-1.5382589501508601e+00 2.8427947792212322e+01 2.3098142119866177e-01
-7.7248149162813728e-01 1.2709039034249448e+01 2.9470710046283094e-01
-8.9882348917021027e-01 1.1607823122970100e+01 3.6255718402129139e-01
ITEM: ATOMS id type xs ys zs
1 1 0.0760601 0.386347 0.362198
2 1 0.905003 0.650873 0.60724
3 1 0.172589 0.66165 0.849789
4 1 0.347585 0.320418 0.198599
5 1 0.908705 0.887698 0.126473
6 1 0.044371 0.119631 0.876172
7 1 0.319918 0.11929 0.640339
8 1 0.172846 0.90198 0.346766
9 1 0.586457 0.320545 0.426477
10 1 0.427041 0.66586 0.639957
11 1 0.648191 0.599547 0.919858
12 1 0.809641 0.34994 0.0850954
13 1 0.414982 0.784535 0.118744
14 1 0.586514 0.103935 0.862859
15 1 0.809182 0.177389 0.60067
16 1 0.683074 0.845132 0.43471
17 1 0.0455215 0.293229 0.207171
18 1 0.953469 0.733485 0.750015
19 1 0.213975 0.751153 0.692819
20 1 0.261464 0.303587 0.23565
21 1 0.971029 0.800619 0.236717
22 1 0.0419734 0.237963 0.709032
23 1 0.28965 0.235504 0.789994
24 1 0.211108 0.794005 0.202302
25 1 0.557692 0.237174 0.260604
26 1 0.45997 0.761192 0.798838
27 1 0.678938 0.71502 0.769312
28 1 0.795933 0.275889 0.276462
29 1 0.458845 0.712163 0.279822
30 1 0.543625 0.218641 0.737877
31 1 0.778452 0.237881 0.782051
32 1 0.718797 0.724494 0.299983
33 1 0.0632086 0.483758 0.183104
34 1 0.940233 0.540273 0.748671
35 1 0.195689 0.561601 0.686173
36 1 0.308557 0.413477 0.358714
37 1 0.94966 0.988479 0.261308
38 1 0.0993965 0.0992683 0.709835
39 1 0.309049 0.0508 0.835534
40 1 0.206671 0.983629 0.168777
41 1 0.591916 0.414186 0.242706
42 1 0.435286 0.571679 0.8092
43 1 0.662688 0.526642 0.744802
44 1 0.817316 0.457235 0.250044
45 1 0.400915 0.8576 0.311005
46 1 0.558908 0.0361082 0.679312
47 1 0.826517 0.0769826 0.785744
48 1 0.696691 0.901097 0.241712
49 2 0.111816 0.362943 0.34303
50 2 0.872522 0.668492 0.651704
51 2 0.137991 0.679947 0.821168
52 2 0.360355 0.24703 0.235534
53 2 0.881456 0.877131 0.184909
54 2 0.0429485 0.116545 0.965905
55 2 0.35661 0.129028 0.645893
56 2 0.138016 0.896082 0.317847
57 2 0.62227 0.288453 0.427413
58 2 0.390536 0.678694 0.66468
59 2 0.612765 0.615129 0.896744
60 2 0.844853 0.318599 0.0870692
61 2 0.390437 0.724957 0.117191
62 2 0.620157 0.13404 0.836664
63 2 0.836418 0.231725 0.594943
64 2 0.646854 0.819959 0.42825
65 2 0.0776471 0.395896 0.447021
66 2 0.894838 0.663691 0.522631
67 2 0.166651 0.659606 0.939821
68 2 0.374843 0.332418 0.133071
69 2 0.893861 0.893024 0.0454498
70 2 0.0211447 0.0573374 0.852933
71 2 0.315211 0.102474 0.553585
72 2 0.169506 0.918882 0.430486
73 2 0.577236 0.333597 0.513707
74 2 0.428133 0.65962 0.554746
75 2 0.649665 0.582869 0.00839254
76 2 0.797951 0.35187 0.999997
77 2 0.417006 0.81146 0.0321803
78 2 0.593024 0.0770357 0.944142
79 2 0.80256 0.168041 0.514413
80 2 0.686851 0.868524 0.517529
81 2 0.0211347 0.237436 0.177929
82 2 0.979485 0.790882 0.76724
83 2 0.237111 0.811801 0.663793
84 2 0.230039 0.307612 0.192159
85 2 0.000475072 0.74571 0.225847
86 2 0.0148608 0.276747 0.662606
87 2 0.264764 0.297711 0.799792
88 2 0.228686 0.720325 0.192414
89 2 0.532091 0.184855 0.235865
90 2 0.48593 0.812594 0.822655
91 2 0.702926 0.775126 0.747595
92 2 0.777972 0.2159 0.323706
93 2 0.490029 0.674604 0.309193
94 2 0.520818 0.287982 0.729736
95 2 0.749547 0.280779 0.811126
96 2 0.740765 0.657629 0.28576
97 2 0.0776619 0.265201 0.177232
98 2 0.921778 0.751339 0.7988
99 2 0.182383 0.770417 0.649925
100 2 0.260857 0.225847 0.280924
101 2 0.949629 0.761317 0.300105
102 2 0.0719074 0.287815 0.706114
103 2 0.322595 0.259111 0.819855
104 2 0.178909 0.784784 0.158444
105 2 0.589774 0.20085 0.241244
106 2 0.427331 0.793733 0.828881
107 2 0.645433 0.746224 0.740557
108 2 0.831134 0.251841 0.279869
109 2 0.432951 0.658469 0.30165
110 2 0.574573 0.250421 0.702472
111 2 0.809304 0.281342 0.795178
112 2 0.683946 0.701197 0.28321
113 2 0.0971155 0.472916 0.155174
114 2 0.910898 0.546719 0.802884
115 2 0.163377 0.576655 0.64471
116 2 0.314236 0.363218 0.431468
117 2 0.920287 0.967904 0.317315
118 2 0.126851 0.152602 0.699277
119 2 0.34369 0.0624678 0.866324
120 2 0.174885 0.986067 0.124257
121 2 0.627726 0.388114 0.224402
122 2 0.39974 0.582359 0.84047
123 2 0.625391 0.540998 0.732038
124 2 0.852173 0.437656 0.26733
125 2 0.372437 0.806228 0.341549
126 2 0.589098 0.0524812 0.626624
127 2 0.858991 0.106212 0.810364
128 2 0.664003 0.869077 0.213271
129 2 0.0493427 0.55624 0.146167
130 2 0.956907 0.46671 0.770613
131 2 0.20849 0.4874 0.658954
132 2 0.306333 0.493091 0.392705
133 2 0.962235 0.065362 0.282268
134 2 0.111319 0.0256564 0.679329
135 2 0.29791 0.982911 0.87758
136 2 0.224449 0.0490981 0.133069
137 2 0.586483 0.489967 0.204674
138 2 0.443449 0.495927 0.845458
139 2 0.672538 0.457492 0.701828
140 2 0.814648 0.536959 0.281035
141 2 0.396976 0.929703 0.349065
142 2 0.541446 0.969616 0.643579
143 2 0.830585 0.995368 0.818057
144 2 0.702135 0.964236 0.188072
145 3 0.0669197 0.49173 0.305005
146 3 0.921116 0.541543 0.631597
147 3 0.183768 0.553343 0.80904
148 3 0.351409 0.402174 0.284692
149 3 0.925516 0.998127 0.150938
150 3 0.0935015 0.0890287 0.834849
151 3 0.311213 0.0223065 0.712372
152 3 0.192498 0.999807 0.28749
153 3 0.586785 0.428251 0.365544
154 3 0.437765 0.557172 0.685442
155 3 0.663423 0.498932 0.867099
156 3 0.81287 0.462658 0.126583
157 3 0.393249 0.871728 0.188914
158 3 0.57785 0.0102055 0.793293
159 3 0.822664 0.0716474 0.6614
160 3 0.684797 0.938314 0.356811
161 3 0.0492873 0.291032 0.332604
162 3 0.93925 0.738502 0.629811
163 3 0.201076 0.754947 0.814896
164 3 0.300761 0.298483 0.14873
165 3 0.940512 0.793699 0.133924
166 3 0.024692 0.221169 0.829277
167 3 0.296375 0.222603 0.66731
168 3 0.19649 0.798603 0.326752
169 3 0.556239 0.235504 0.389501
170 3 0.455873 0.759544 0.672231
171 3 0.673979 0.701263 0.892666
172 3 0.784298 0.268915 0.153941
173 3 0.460615 0.734281 0.153768
174 3 0.552346 0.195103 0.857596
175 3 0.772293 0.244497 0.657684
176 3 0.714532 0.750119 0.423155
177 3 0.0350844 0.391844 0.141635
178 3 0.970928 0.630295 0.793194
179 3 0.229719 0.644512 0.644894
180 3 0.260243 0.387327 0.321758
181 3 0.987057 0.903689 0.282293
182 3 0.059818 0.146803 0.646089
183 3 0.279171 0.141135 0.866671
184 3 0.232944 0.883249 0.138006
185 3 0.556372 0.339283 0.194721
186 3 0.465027 0.658447 0.85924
187 3 0.689181 0.621318 0.699268
188 3 0.789624 0.380501 0.325827
189 3 0.445157 0.799722 0.351776
190 3 0.529618 0.132154 0.663078
191 3 0.785902 0.134052 0.841683
192 3 0.730793 0.812491 0.219106
193 3 0.104422 0.572418 0.339783
194 3 0.883302 0.458544 0.607384
195 3 0.152464 0.463563 0.858149
196 3 0.369113 0.507146 0.229521
197 3 0.884758 0.0829277 0.141874
198 3 0.105098 0.974458 0.868473
199 3 0.346351 0.930201 0.704534
200 3 0.158932 0.0958367 0.303759
201 3 0.618277 0.513776 0.411235
202 3 0.40452 0.473472 0.639556
203 3 0.628666 0.407856 0.893441
204 3 0.85311 0.524346 0.0670935
205 3 0.406654 0.980103 0.137123
206 3 0.618103 0.923229 0.79193
207 3 0.865448 0.00911844 0.616632
208 3 0.637386 0.00205531 0.365917
209 3 0.999301 0.306957 0.385413
210 3 0.982958 0.72193 0.553687
211 3 0.245628 0.753562 0.887048
212 3 0.294789 0.387396 0.0591749
213 3 0.975982 0.795902 0.0336257
214 3 0.970794 0.214358 0.820586
215 3 0.246392 0.224523 0.620664
216 3 0.242863 0.811215 0.387349
217 3 0.504702 0.241851 0.430959
218 3 0.504392 0.739226 0.618124
219 3 0.722359 0.682945 0.948224