LAMMPS data file via write_data, version 15 Apr 2020, timestep = 80000

336 atoms
4 atom types

-1.0651617813289462e+00 2.7429162101729432e+01 xlo xhi
-1.1193694995744812e+00 1.2693369858174609e+01 ylo yhi
-7.5823757652147261e-01 1.1467237210321436e+01 zlo zhi
-3.8087301871656942e+00 -3.2985996750055722e+00 -4.4845013185121546e-01 xy xz yz

Masses

1 12.0107
2 1.00794
3 14.0067
4 15.9994

Atoms # full

3 1 1 7.8877791793545080e-03 -2.8845209927130151e+00 3.5258277227512318e+00 7.0505936233763702e+00 0 0 0
5 1 1 6.0349386757667656e-02 -2.1786956448862709e+00 8.4146698860333409e+00 9.5788761498679076e-01 1 0 0
6 1 1 3.8955792147218934e-02 -4.4120116369280886e+00 9.0003777231109652e+00 9.5036789434616367e+00 0 -1 0
17 1 1 2.2741673168592793e-02 -5.3391640503667714e-01 -1.0680056015087871e+00 1.2593869988326754e+00 0 0 0
21 1 1 1.2864872336409322e-02 -2.4313203083448136e+00 6.0467026893384315e+00 1.8936428413628712e+00 1 0 0
49 1 2 1.7595815368144999e-01 -1.0623559402837881e+00 -3.5065682434571477e-01 3.9532382359477749e+00 0 0 0
51 1 2 1.7999718249653826e-01 -2.5791978003813396e+00 2.4975823384098774e+00 7.2805696313207209e+00 0 0 0
54 1 2 1.6945766017108488e-01 -3.6390100509204881e+00 8.3598308737710809e+00 9.9670797138402030e+00 0 -1 0
85 1 2 1.9295740486254576e-01 -2.6950434134066672e+00 4.9955831864280364e+00 1.5743246208114594e+00 0 0 0
97 1 2 1.3630982566575081e-01 3.9251484647226720e-01 -5.8380708909063717e-01 1.6779859401907902e+00 0 0 0
101 1 2 1.9471820587736818e-01 -2.9215285130024959e+00 6.2574222618379656e+00 2.8750883894386425e+00 1 0 0
113 1 2 1.5813528510719435e-01 -9.0225811960546287e-01 1.4667675854993774e+00 1.9707497314902955e+00 0 0 0
147 1 3 -1.7528302145139302e-01 -3.2581812187233155e+00 4.0203249595036290e+00 8.4465175223525399e+00 0 0 0
150 1 3 -1.6547764958956643e-01 -5.0233667946857450e+00 8.1827827435046565e+00 8.3243694867534685e+00 0 -1 0
163 1 3 -1.6945979831513602e-01 -1.7204246695026406e+00 4.2514340615862967e+00 6.2419731857218892e+00 0 0 0
195 1 3 8.3453129683811800e-02 -4.2538215503669932e+00 3.1050678531007732e+00 9.3009617060616279e+00 0 0 0
198 1 3 9.5829306586722812e-02 2.1970659266241832e+01 8.5676517928749085e+00 8.0523055257962426e+00 -1 0 0
211 1 3 8.0344368470989289e-02 -2.3691573106785251e+00 5.5096123787672875e+00 5.4874791068762789e+00 0 0 -1
243 1 4 -1.3744393867025018e-01 2.3071530334206280e+01 3.0170855411117570e+00 8.8542921393721876e+00 -1 0 0
291 1 4 -1.8078829711280262e-01 -3.6421804491824821e+00 5.5924695234001529e+00 5.3514035252159209e+00 0 0 -1
161 1 3 -1.7316518223129185e-01 -5.1425676428843179e+00 1.2007319362282118e+01 2.3913626447858505e+00 0 -1 0
1 1 1 2.9439279417469606e-03 -1.9378198925803878e+00 -6.8912173441460356e-01 3.3036081187030550e+00 0 0 0
257 1 4 -1.7246205218384197e-01 -2.5918267847511358e+00 1.3645458901380438e+00 5.0429748812520208e+00 0 0 0
278 1 4 -1.1437195721162677e-01 -6.9262517823512981e-01 -1.2570187158231967e+00 8.3369212707956279e+00 1 0 -1
53 1 2 1.4142695286945445e-01 -2.7788333722159693e+00 8.9104153902571106e+00 1.7519539535556734e+00 1 0 0
165 1 3 -1.6655091853495796e-01 -2.9084355906423753e+00 7.0936544439410545e+00 7.7682030815289416e-01 1 0 0
33 1 1 2.9662369893406985e-02 -1.7919234027687956e+00 1.0547520703183157e+00 1.4603091092217766e+00 0 0 0
69 1 2 1.2000353344580986e-01 -2.3730644726441579e+00 9.0815282846210650e+00 1.2068640291063526e-01 1 0 1
177 1 3 -1.7920767697867951e-01 -1.1946471385000215e+00 4.8690843053617483e-02 4.4402695517205881e-01 0 0 0
81 1 2 1.9103965610249732e-01 -4.0299089451469481e+00 1.2034818971355289e+01 4.3900537711025489e-01 1 -1 0
67 1 2 2.0480653983587047e-01 -3.8183248663582670e+00 3.4448378037038152e+00 6.4354732774815444e+00 0 0 -1
70 1 2 1.7249931194749626e-01 -5.1898026170490397e+00 9.1319564476349093e+00 1.0276171618603183e+01 0 -1 -1
19 1 1 5.4821823294744471e-02 -5.0889736582572676e-01 4.4489960082541300e+00 7.1621967139882061e+00 0 0 0
22 1 1 2.5118623473985798e-02 -2.7163337458963217e+00 1.0144606706783055e+01 7.9073441648724065e+00 0 -1 0
35 1 1 2.9786324027609404e-02 -1.9754660948074232e+00 4.3785275324103807e+00 9.3025281671763551e+00 0 0 0
37 1 1 1.5229887341989606e-02 -3.5504946571747231e-01 7.4837603060457907e+00 2.4491895041410126e+00 1 0 0
38 1 1 -6.0577665381074397e-04 -4.1148479236912276e+00 8.2467901349476946e+00 7.0259461790047224e+00 0 -1 0
102 1 2 1.7947573908040890e-01 -1.8696237861743001e+00 9.6012426423177857e+00 8.2994546927802979e+00 0 -1 0
115 1 2 1.5965510245616721e-01 -1.5686056820072416e+00 3.4212803120791406e+00 9.7283417963800538e+00 0 0 0
117 1 2 1.8506988288264414e-01 -7.3541395941017118e-01 7.9640094347612829e+00 3.4190906743765996e+00 1 0 0
118 1 2 2.0666793646108192e-01 -3.4980955765059631e+00 7.3680826053775492e+00 7.0409206615981423e+00 0 -1 0
131 1 2 1.8466111630201384e-01 -2.2035827238846455e+00 4.8357475145112545e+00 1.0307525739430378e+01 0 0 0
133 1 2 2.0193610376147125e-01 7.1217649150854756e-01 7.3747604854489106e+00 2.6102925590228643e+00 1 0 0
134 1 2 2.0989938163248908e-01 -4.7874899679680833e+00 7.9736414484546208e+00 6.1916855833852695e+00 0 -1 0
149 1 3 -1.7751388839797244e-01 -6.6992938053168771e-01 8.5202727539325700e+00 1.3184670086845323e+00 1 0 0
167 1 3 -1.7183543897792836e-01 3.3814927624383904e+00 1.2521425625918359e+00 3.1380710099490661e+00 0 0 0
179 1 3 -1.7496087315230099e-01 -7.5359657292079163e-01 5.0439223768437964e+00 8.5762996464501313e+00 0 0 0
181 1 3 -1.6839411112853370e-01 -9.5540295373079376e-01 6.0210941216828608e+00 2.3287689353482470e+00 1 0 0
182 1 3 -1.6485940075608618e-01 -3.1264938552849726e+00 9.4579498287894808e+00 6.6342018434353678e+00 0 -1 0
197 1 3 7.3418771408839650e-02 -1.2087888781671285e-01 9.9803494697007267e+00 1.6754424785265343e+00 1 -1 0
200 1 3 7.6048869705436853e-02 3.2289728289387725e+00 9.9748127549906407e+00 -4.2371215647662397e-01 0 -1 0
202 1 3 7.3041778517022621e-02 1.2920734187922571e+00 8.9341535537356265e+00 6.1832083347842417e+00 0 0 0
215 1 3 8.8045677201390699e-02 2.1605251332394002e+00 1.1343492485385767e+00 4.1860192842646802e+00 0 0 0
227 1 3 9.5608579828276113e-02 -5.7566464423117836e-01 6.6537618777394449e+00 8.6398516586693184e+00 0 0 0
229 1 3 8.7495962236890559e-02 -3.3750402809458180e-02 5.1693404291176144e+00 1.2629322681318289e+00 0 0 0
230 1 3 8.1514278466051610e-02 -3.7118856808384386e+00 1.0463612872662480e+01 5.5513262901919145e+00 1 -1 0
244 1 4 -1.4615294512623347e-01 3.0138501772254322e-01 1.4001084462769855e+00 9.9452485235565184e+00 0 0 -1
245 1 4 -1.3982734038904704e-01 8.9003071431569047e-01 1.0081887913671476e+01 2.4343593760896738e+00 1 -1 0
248 1 4 -1.5345708937416194e-01 -9.7598402372984649e-01 8.7569945668351146e+00 1.1302192997987760e+01 0 -1 -1
250 1 4 -1.5366652306462975e-01 7.4953822172902562e-01 1.0004034648607607e+01 5.8009333202780482e+00 0 0 0
260 1 4 -1.4855100758548306e-01 4.6541980471771254e+00 1.2867023177363048e+00 -3.6672007194043815e-01 0 0 0
261 1 4 -1.6690427856295301e-01 -9.9429821816268316e-01 1.0951382366712981e+01 1.6586388677375972e+00 1 -1 0
262 1 4 -1.4054632272511522e-01 2.1447290861550485e+01 8.4088219240739335e+00 6.9183470012281596e+00 -1 0 0
264 1 4 -1.7887185520417476e-01 3.2734776100338561e+00 1.1242449880676382e+01 -6.3875593273498710e-01 0 -1 0
266 1 4 -1.4946753110548552e-01 8.3321142617060850e-01 7.7842703846721042e+00 5.7983358223128034e+00 0 0 0
275 1 4 -1.6531161453079887e-01 -1.6392301030798175e+00 6.4507969956113085e+00 5.0050563891207922e+00 0 0 -1
279 1 4 -1.7670049824541786e-01 9.9351143328756164e-01 1.3544524278416210e+00 3.7231444872980344e+00 0 0 0
295 1 4 -1.5727146361314068e-01 2.2868623095530380e+00 4.3850794492586331e-01 5.2630215483372274e+00 0 0 0
307 1 4 -1.4513435622522791e-01 5.1486183107920436e-01 7.1085071936046740e+00 9.1400649677292023e+00 0 0 0
309 1 4 -1.6705368313882546e-01 4.2512114506940835e-01 4.0444230411272022e+00 1.6600504267618383e+00 0 0 0
310 1 4 -1.2193648761265333e-01 -4.8984279943342273e+00 1.0967421644269983e+01 5.7662066559215477e+00 1 -1 0
323 1 4 -1.8082413194454675e-01 -1.5742776408215566e+00 7.3691571454717879e+00 8.2789419770779666e+00 0 0 0
325 1 4 -1.6461564991931987e-01 5.8662998881078665e-01 5.8435394013196875e+00 3.8011468481169897e-01 0 0 0
326 1 4 -1.4582034876998248e-01 -3.2596290813640003e+00 1.0541889124737235e+01 4.3498548012456864e+00 1 -1 0
99 1 2 1.1310148894879249e-01 -8.4962234157154981e-02 3.4144811628370961e+00 7.3324277462548517e+00 0 0 0
83 1 2 1.7417066388552946e-01 3.6741007291091554e-01 4.8787985999826438e+00 6.6785431555285646e+00 0 0 0
86 1 2 1.8154580492344546e-01 -2.3300801903617798e+00 1.1151361889533472e+01 7.6621204155223532e+00 1 -1 0
166 1 3 -1.7252010536962506e-01 -3.7160210522397441e+00 1.0337042029730384e+01 9.1248647059287151e+00 0 -1 0
214 1 3 1.0733992576286153e-01 -4.7998725311881820e+00 1.1494360791731747e+01 8.9774413050068205e+00 0 -1 -1
294 1 4 -1.2713768492484095e-01 -5.7557975837133961e+00 1.1541737662614977e+01 9.8819855092155748e+00 0 -1 -1
4 1 1 3.0430597739810543e-02 3.8783276001880491e+00 3.6397700523713539e-01 1.0712546283574639e+01 0 0 -1
7 1 1 3.3098679477252327e-02 4.5653504828319376e+00 4.0031870937230329e-01 3.6557938918059429e+00 0 0 0
8 1 1 2.3614303982664491e-02 4.3761322416844184e+00 7.8611774843570013e+00 6.4238317365439812e-01 0 0 0
10 1 1 6.4956068930307493e-03 3.4709026848250240e+00 7.6988080132288728e+00 6.8957923321562893e+00 0 0 0
20 1 1 -4.9878946976791225e-03 4.9494020200755680e+00 2.7216129387062837e+00 1.0590861598644349e+01 0 0 -1
23 1 1 1.3069162323430545e-02 3.7069187043219993e+00 2.7557541762366653e+00 2.8057116195261633e+00 0 0 0
24 1 1 8.7605280923928990e-03 6.7457363384695608e+00 8.0343901165885683e+00 1.5136800639310550e+00 0 0 0
26 1 1 2.8385054480798796e-02 5.7461063014337217e+00 8.9216401093726780e+00 7.0519649891861249e+00 0 0 0
36 1 1 5.7753185039089605e-02 3.1285152663444591e+00 2.1185428799787807e+00 8.9954807629385520e+00 0 0 -1
39 1 1 9.4897580618590223e-03 5.5991951830565077e+00 2.5943585982352797e+00 4.5091631914643520e+00 0 0 0
40 1 1 2.9648981207759835e-02 5.5100514684158144e+00 1.0209636312395183e+01 7.9945232928428567e-01 0 0 0
42 1 1 1.0340787637837766e-02 3.5213100630489276e+00 1.0145294985825956e+01 6.5885001676366777e+00 0 0 0
52 1 2 1.0652656535151395e-01 4.5976949605967476e+00 -1.4551957985538788e-01 1.0024879149028258e+01 0 0 -1
55 1 2 1.8078836172363422e-01 5.1156013719655302e+00 1.8660072067148592e-02 2.7068533659723482e+00 0 0 0
56 1 2 1.8058826564127833e-01 4.5803998290941177e+00 7.6390041793929528e+00 -3.9057404027071818e-01 0 0 0
58 1 2 1.8202532497728852e-01 3.5610825030737705e+00 7.5385015679085585e+00 5.8212876564436096e+00 0 0 0
68 1 2 1.9234508472716494e-01 3.5303333225200788e+00 -4.4561562563188828e-01 1.1363923564833094e+01 0 0 0
71 1 2 1.8239584629814637e-01 4.3515245158409472e+00 -5.1743473295926723e-01 4.1609561976319709e+00 0 0 0
72 1 2 1.8421929397052461e-01 3.3792338563146007e+00 7.3269616486692213e+00 8.0004094215759336e-01 0 0 0
74 1 2 2.1270411255980581e-01 2.8688175613055686e+00 6.8518342232234488e+00 7.2743865731499904e+00 0 0 0
84 1 2 2.5619159036984024e-01 5.3530049112859599e+00 3.5127342708910598e+00 1.1129809637680747e+01 0 0 -1
87 1 2 1.9274398927972519e-01 2.7587728922185635e+00 3.2602516838411066e+00 2.5997916485317343e+00 0 0 0
88 1 2 2.0142047209303543e-01 7.5263358209351026e+00 7.6880220320973232e+00 2.1278181363475706e+00 0 0 0
90 1 2 1.4611080658777359e-01 6.7710647352587365e+00 9.0739218294908675e+00 7.4835450536573989e+00 0 0 0
100 1 2 1.6362725037632458e-01 5.7895220579630795e+00 2.5033731670305919e+00 9.8240104208069674e+00 0 0 -1
103 1 2 1.7297850851363994e-01 4.2431440587879727e+00 2.8131733546897184e+00 1.8436418432467141e+00 0 0 0
104 1 2 1.8187141479163804e-01 7.1710695630531385e+00 7.8496887539360580e+00 5.1163706252616592e-01 0 0 0
106 1 2 1.7561816415675474e-01 5.9504023318038470e+00 8.7852203944223852e+00 6.0107207453151714e+00 0 0 0
116 1 2 1.2518851946446757e-01 3.9914929119938778e+00 1.6912964610640908e+00 8.3290549870415056e+00 0 0 -1
119 1 2 1.9877975773309461e-01 6.4169433350444383e+00 2.7371045980102879e+00 3.7832542769853674e+00 0 0 0
120 1 2 1.5875294505938919e-01 5.8308369772750694e+00 1.0311716895781728e+01 -2.7134284450217550e-01 0 0 0
122 1 2 1.7697653360758703e-01 3.6707276598214285e+00 1.0142033701100200e+01 5.5254968978681100e+00 0 0 0
132 1 2 1.6960057468868286e-01 2.3526338544415957e+00 2.5541759415968079e+00 8.3118972227608374e+00 0 0 -1
135 1 2 1.9334638895286171e-01 5.9663187819163896e+00 3.0627267028302931e+00 5.4250223321681608e+00 0 0 0
136 1 2 1.9454436432291705e-01 5.2620378633692813e+00 1.1243331513536077e+01 1.0865014921675049e+00 0 0 0
138 1 2 2.0075677290627289e-01 2.9625177637846383e+00 1.1067732392406754e+01 6.7595287678352438e+00 0 0 0
148 1 3 -1.9404790743122496e-01 2.7332623709443444e+00 8.5160543653386411e-01 9.8050242078697671e+00 0 0 -1
151 1 3 -1.8094057697336627e-01 5.5230509394155334e+00 1.0366004800897319e+00 4.6782068512768848e+00 0 0 0
152 1 3 -1.6288005942311898e-01 4.1791948066302416e+00 9.3816402186022074e+00 7.5878668448435871e-01 0 0 0
154 1 3 -1.5459488020879164e-01 2.6288171242051077e+00 8.9609454815950045e+00 7.0910574826608865e+00 0 0 0
164 1 3 -1.6506805366842592e-01 8.0767849251916850e+00 1.9319882451192174e+00 -7.3129072101410453e-01 0 0 0
168 1 3 -1.6716489745977386e-01 5.4739996972249871e+00 7.1632220211024977e+00 1.5338480689442355e+00 0 0 0
170 1 3 -1.6514280994018571e-01 4.9594908358736376e+00 7.6330145224606847e+00 7.4480849812988454e+00 0 0 0
180 1 3 -1.8532467647644993e-01 3.8260519257750953e+00 3.3066059398688301e+00 9.6828212967885605e+00 0 0 -1
183 1 3 -1.7649997423083910e-01 4.4505386654010213e+00 3.5239093757680253e+00 3.8952766933179186e+00 0 0 0
184 1 3 -1.6787730057399422e-01 6.6197289883062078e+00 9.6080304353683594e+00 1.6750657266112072e+00 0 0 0
186 1 3 -1.6465645385947264e-01 4.9673493483777005e+00 1.0318994927432595e+01 7.1441368657996849e+00 0 0 0
196 1 3 9.8414111474823263e-02 1.3470693520552572e+00 1.0204396111157856e+00 1.0591599488281854e+01 0 0 -1
199 1 3 7.5281530068520980e-02 7.0282267145475936e+00 4.4188659567485744e-01 4.5083157716620272e+00 0 1 0
212 1 3 9.6796623956027686e-02 7.5051547956042777e+00 2.2179844829084749e+00 7.1674836114399643e-01 0 0 1
216 1 3 8.5882691887514101e-02 4.9207659661919640e+00 7.1077597319708934e+00 3.0227976853372907e+00 0 0 0
218 1 3 9.4617393363123761e-02 4.9715321649172601e+00 7.4246975744534245e+00 9.0345654512920923e+00 0 0 0
228 1 3 9.1890994971883161e-02 2.8407116391976439e+00 4.2172966379267551e+00 1.0581525254648614e+01 0 0 -1
231 1 3 8.9446563427423742e-02 3.4667459742364191e+00 3.7601713131456416e+00 5.1515202818499581e+00 0 0 0
232 1 3 9.0600324270999705e-02 6.3284946514091924e+00 9.9085806410687702e+00 3.2287068760972955e+00 0 0 0
234 1 3 9.1900548173281332e-02 4.8910840569761476e+00 1.0887088775454494e+01 8.6257682381306147e+00 0 0 0
247 1 4 -1.4059866927817927e-01 7.9054205068639316e+00 1.1495417729167503e+00 3.9224226361468455e+00 0 1 0
263 1 4 -1.3458164261778910e-01 7.3197943376691228e+00 -5.9515488111782711e-01 5.2206569555582201e+00 0 1 0
276 1 4 -1.6056943813310728e-01 6.6464634980431949e+00 1.4711211377127276e+00 1.2786979602923352e+00 0 0 1
280 1 4 -1.5879259842342142e-01 5.7884882674103766e+00 6.9155833971897023e+00 3.9306102099926372e+00 0 0 0
282 1 4 -1.3520533693743736e-01 3.8684123106519026e+00 7.5994715530541113e+00 9.6753587245334103e+00 0 0 0
292 1 4 -1.2295219836663027e-01 7.9958997533283096e+00 3.2642183384241221e+00 1.3545245749683410e+00 0 0 1
296 1 4 -1.6751526319446045e-01 3.6790684700059169e+00 7.4306076284005060e+00 3.3259805561631852e+00 0 0 0
298 1 4 -1.3412309837805703e-01 5.9805640017504587e+00 6.8551654941381015e+00 9.5858507124783152e+00 0 0 0
308 1 4 -1.4645821734518807e-01 6.6247327576767470e+00 5.2983531832699438e+00 -6.0914863938062302e-01 0 0 0
311 1 4 -1.5970749563207742e-01 2.7536866816876384e+00 4.8450562543198004e+00 5.2036994460041717e+00 0 0 0
312 1 4 -1.8589455700591961e-01 7.1169557878419978e+00 9.3608084420040321e+00 4.1000273363260646e+00 0 0 0
314 1 4 -1.4734333576308389e-01 3.7950686094786916e+00 1.0743538456537888e+01 9.2811812410895556e+00 0 0 0
324 1 4 -1.4896481032944053e-01 1.5773756564356542e+00 4.2245504338484512e+00 1.0394731991353979e+01 0 0 -1
327 1 4 -1.8188480360464915e-01 3.6601673113801092e+00 3.1268254009451200e+00 6.2439907192489690e+00 0 0 0
328 1 4 -1.4674024605539010e-01 5.3827027681304465e+00 1.0671156591471590e+01 3.6140683205294559e+00 0 0 0
330 1 4 -1.3111384504012052e-01 5.7815799299039021e+00 1.1760504555873545e+01 8.9966973215263586e+00 0 0 0
217 1 3 9.4062222903833689e-02 1.2470925780169457e+01 3.5662817877492579e+00 2.3973195229661082e+00 0 0 0
238 1 3 1.0149668226233979e-01 8.4704570125581355e+00 2.0695732746315803e+00 7.8100000072655620e+00 0 0 0
281 1 4 -1.3322892589062738e-01 1.2625795623982601e+01 2.4952145783361415e+00 1.7139068214222966e+00 0 0 0
297 1 4 -1.6734018448512883e-01 1.1610067149847351e+01 3.5458214898801428e+00 3.3603493641989441e+00 0 0 0
313 1 4 -1.3554118708458068e-01 1.0529665647926508e+01 4.8334669609701404e+00 2.3602138927518990e-01 0 0 0
318 1 4 -1.7210761155285156e-01 7.3994131355280901e+00 2.4637306679260331e+00 7.2603206758584546e+00 0 0 0
334 1 4 -1.4392907819634232e-01 8.4071554154231656e+00 1.4666783844240472e+00 8.9709127148765582e+00 0 0 0
129 1 2 1.8786737921139096e-01 -2.3327359968904009e+00 1.8752752799351855e+00 8.8106901059438480e-01 0 0 0
213 1 3 9.2959507314837347e-02 -2.6203137582669838e+00 6.3601921868959392e+00 -6.3292851283260587e-01 1 0 1
277 1 4 -1.4928142325292004e-01 -4.9817732752111397e+00 6.2456990664754715e+00 1.0798797956908640e+01 0 0 0
65 1 2 2.3734455884653843e-01 2.5899304271054302e+01 -1.1600529586539188e+00 4.0610431484203007e+00 -1 0 0
9 1 1 4.7367698639433735e-03 1.3463903018389406e+01 5.6537501618828871e+00 3.4998393873467286e+00 0 0 0
11 1 1 1.6118989969512870e-02 8.8582664508639599e+00 9.1596002985437188e+00 1.0406074667347944e+01 0 0 0
13 1 1 2.9914383127194220e-02 9.6761686587142712e+00 1.1318783135317616e+01 5.0355324699540986e+00 0 0 0
14 1 1 5.7706924583767402e-03 1.1587455188957069e+01 4.2319607855452501e+00 7.6775468884010065e+00 0 0 0
25 1 1 2.2235865599704415e-02 1.3257182213046921e+01 5.6760384886506428e+00 9.4984779008114462e-01 0 0 0
27 1 1 1.0084666383892771e-02 8.9564154759623698e+00 1.1565292524559965e+01 1.1452631067378007e+01 0 0 0
29 1 1 1.0824953372407534e-02 1.4399922122583938e+01 -4.0406411794735109e-01 3.9829995464096823e+00 0 1 0
30 1 1 1.5440884902443892e-02 9.9200871396001773e+00 3.2523685771197606e+00 5.9900874387742631e+00 0 0 0
41 1 1 1.5951352438983473e-02 1.2042670557884067e+01 7.4532071152830932e+00 2.3636887197785450e+00 0 0 0
43 1 1 7.9092542116087489e-03 1.1014840456935119e+01 9.9818507135241603e+00 1.1353501429002250e+01 0 0 0
45 1 1 6.3723881098547833e-02 1.2046665939813579e+01 1.2130686338270060e+01 5.6750222057145701e+00 0 0 0
46 1 1 -5.0571242274906787e-03 1.1027849837022734e+01 1.8024952251193298e+00 7.8970294227592328e+00 0 0 0
59 1 2 1.5871577162161943e-01 8.9758901949340917e+00 9.4938769902858908e+00 9.3121556591209504e+00 0 0 0
61 1 2 1.4283689007317141e-01 1.0036520378159624e+01 1.0585712857413412e+01 4.2080500699338641e+00 0 0 0
62 1 2 1.5059000480789073e-01 1.2500960626856543e+01 4.0151840408266297e+00 7.1147655577287940e+00 0 0 0
73 1 2 1.9610667508139551e-01 1.3464786495248735e+01 4.9486434714129750e+00 4.3753630780851216e+00 0 0 0
75 1 2 2.1185970488209482e-01 8.2208764204277536e+00 8.2521132736277849e+00 1.0424310383497229e+01 0 0 -1
77 1 2 1.8748537884880095e-01 8.8250931842862848e+00 1.0867010138535615e+01 5.4044566129916802e+00 0 0 1
78 1 2 2.2984316854693213e-01 1.1891296173600180e+01 5.0910165665954707e+00 8.2705348979883979e+00 0 0 -1
89 1 2 1.8980865388456261e-01 1.3278466179029598e+01 5.0502202119668143e+00 3.4950223467257180e-02 0 0 0
91 1 2 1.8923902015231422e-01 1.5541100913586595e+01 -1.1253045806976727e+00 -1.6187560972842685e-01 0 1 1
93 1 2 2.0659166481642088e-01 1.4100936257727852e+01 6.0272679030079068e-01 3.6749277721119764e+00 0 1 0
94 1 2 1.8741159167200780e-01 8.9708883239135027e+00 3.4787282224406431e+00 5.4747973537688042e+00 0 0 0
107 1 2 1.7616382330447403e-01 9.2167497648190917e+00 1.2095229973438059e+01 1.0505612262565659e+01 0 0 0
109 1 2 1.7169052530456558e-01 1.4855989170181509e+01 -9.3011870508225092e-01 3.0912577856040389e+00 0 1 0
110 1 2 1.9603943823502679e-01 1.0595984792969661e+01 2.9417608226704184e+00 5.1360194256597955e+00 0 0 0
121 1 2 1.8227658774994299e-01 1.2839444044405640e+01 8.1859859803620374e+00 2.2586261755756403e+00 0 0 0
123 1 2 1.9259362896365090e-01 1.1401220113831304e+01 1.0355658949958947e+01 1.0385364690607645e+01 0 0 0
125 1 2 1.0825808894359618e-01 1.2571532287929003e+01 1.1640549203815091e+01 4.8934609787393040e+00 0 0 0
126 1 2 2.1181258713458170e-01 1.1867354730487108e+01 1.6533505275228331e+00 7.2243672915008768e+00 0 0 0
137 1 2 1.8300065418372438e-01 1.1090536197367610e+01 8.0740546040627308e+00 2.4350612335802690e+00 0 0 0
141 1 2 1.3923324335619572e-01 1.2852315417826809e+01 1.2240849785107514e+01 6.4780422892821967e+00 0 0 0
142 1 2 2.1793431576765798e-01 1.0828379272269089e+01 9.1672717751156929e-01 8.6329624265386009e+00 0 0 0
153 1 3 -1.6613139617851458e-01 1.2320638209615570e+01 6.6732699397232240e+00 3.7290386431935998e+00 0 0 0
155 1 3 -1.7029539594869181e-01 1.0197013522190490e+01 8.6712031332270136e+00 1.1033805570799341e+01 0 0 0
157 1 3 -1.6976930321382278e-01 1.0763013390959784e+01 1.1271890450231382e+01 6.1374278793029937e+00 0 0 0
158 1 3 -1.6059034605731795e-01 1.1433212971878369e+01 3.0704426505007021e+00 8.6917647780280802e+00 0 0 0
169 1 3 -1.7900154129990831e-01 1.3500748707196161e+01 4.7772255644204051e+00 2.2028044626449241e+00 0 0 0
171 1 3 -1.7515089423213670e-01 8.0675194246181672e+00 1.0324534209944900e+01 1.1050946779850637e+01 0 0 0
173 1 3 -1.7065731552363789e-01 1.3088323210981253e+01 -1.2436690247648929e+00 4.2258392919485122e+00 0 1 0
174 1 3 -1.7342377553685329e-01 1.0407234618811948e+01 4.5469883407791052e+00 6.6180390142998693e+00 0 0 0
185 1 3 -1.7257483831839374e-01 1.2031204871114168e+01 6.6604432140057233e+00 1.0402187084037413e+00 0 0 0
187 1 3 -1.7880066692253860e-01 1.3611118808075197e+01 1.1612020748881289e+01 -1.3719842875574584e-01 0 0 1
189 1 3 -1.7646316504067633e-01 1.5481838742021598e+01 -2.9933920054096452e-01 5.0965524767435042e+00 0 1 0
190 1 3 -1.5016459107234423e-01 9.8012552853162571e+00 1.9528316755344681e+00 6.9248451908596023e+00 0 0 0
201 1 3 7.3490335044445812e-02 1.2474649365555228e+01 7.6897514448748838e+00 4.9616839101537851e+00 0 0 0
203 1 3 6.5703301258174474e-02 1.0920593390150358e+01 7.7967312145850807e+00 9.9243383438677313e+00 0 0 0
205 1 3 8.7743114914556497e-02 1.0234289339291658e+01 1.1662382403646397e+01 7.5801850946753655e+00 0 -1 0
206 1 3 7.0618188346349378e-02 1.2696528988756278e+01 2.7996839990736198e+00 9.6799643446823573e+00 0 1 0
219 1 3 8.0864236643242687e-02 1.0547873060374393e+01 1.0315924320177565e+01 1.4065147271891076e-01 0 0 0
221 1 3 9.2285759211191157e-02 1.2110999519799288e+01 -2.7605797262215015e-01 5.0740688645045200e+00 0 1 1
222 1 3 8.9250013149636931e-02 9.2461048496903011e+00 5.1158542290484812e+00 7.5570494413456286e+00 0 0 -1
233 1 3 1.1204531845393567e-01 1.0652825117772789e+01 5.8281687224859766e+00 1.0155587582957091e+00 0 0 0
235 1 3 8.4957269986757733e-02 1.3258298017724309e+01 1.1215534700500911e+01 1.3755937272260441e+00 0 0 1
237 1 3 9.7385005724248380e-02 1.5146456150220223e+01 7.7291504497970642e-01 6.2558259677081409e+00 0 1 0
251 1 4 -1.5078421120309124e-01 1.0732035914608169e+01 8.0392776670477133e+00 8.6614056355699311e+00 0 0 0
253 1 4 -1.8098687980019601e-01 1.0998095495424483e+01 1.1491156632822904e+01 8.6179770457817995e+00 0 -1 0
254 1 4 -1.3513271917916087e-01 1.3822063757375538e+01 3.3558840429917884e+00 9.3963768476210525e+00 0 1 0
267 1 4 -1.4532120924116576e-01 1.1626971333585214e+01 6.7841935100853084e+00 1.0296367524530812e+01 0 0 0
269 1 4 -1.5592210012753951e-01 9.0601419103809278e+00 1.2187921215282305e+01 7.5780781774588268e+00 0 -1 0
270 1 4 -1.4435084706452456e-01 1.2375839102273165e+01 2.4368702493496648e+00 1.0872131575591585e+01 0 1 0
283 1 4 -1.6250129787890055e-01 1.0248160757424611e+01 1.1178308603127217e+01 1.0213247108783337e+00 0 0 0
285 1 4 -1.0808022725977670e-01 1.0841481424385638e+01 -5.8016328490350999e-01 4.9948367535020299e+00 0 1 1
286 1 4 -1.3412305055658846e-01 8.2538029208723263e+00 5.7472153088059557e+00 6.9960521386621952e+00 0 0 -1
299 1 4 -1.5709259497080874e-01 9.8915081099164723e+00 9.1908702800913176e+00 1.1467993720564695e-01 0 0 0
301 1 4 -1.7886721649454418e-01 1.2538718509113821e+01 8.2198417733177886e-01 5.5678149971945015e+00 0 1 1
302 1 4 -1.2658940926285450e-01 9.3535474401220888e+00 5.0101535085175941e+00 8.8333405292370024e+00 0 0 -1
317 1 4 -1.3546615100829909e-01 1.5195124482099608e+01 4.1144735232130669e-01 7.4513583215033448e+00 0 1 0
329 1 4 -1.4992637243524781e-01 9.8556916774254333e+00 6.1057804974141368e+00 1.9807130594158928e+00 0 0 0
333 1 4 -1.2688248078561187e-01 1.5061247970930008e+01 2.0550328575116303e+00 5.9726378962870097e+00 0 1 0
139 1 2 1.8241773030469494e-01 1.5239257369939676e+01 1.0173136990115406e+01 -4.2053128130892570e-01 0 0 1
249 1 4 -1.5860160361616954e-01 1.1635544190262397e+01 8.6027905345584124e+00 5.2123008339439201e+00 0 0 0
315 1 4 -2.1773040131029534e-01 1.2711650829242700e+01 1.2098962709950328e+01 2.0914115217869567e+00 0 0 1
331 1 4 -1.8679948964816445e-01 1.3521484794213219e+01 1.0027435048983971e+01 1.8261411081022327e+00 0 0 1
57 1 2 2.1089279025415475e-01 1.4417743557191383e+01 6.2107215752505951e+00 3.4923831613998484e+00 0 0 0
105 1 2 1.5994006937987792e-01 1.4070524561628059e+01 6.3322121990885787e+00 7.2484873152282914e-01 0 0 0
225 1 3 9.4259457729080467e-02 2.6166542495550793e+01 -5.0777001677740408e-01 -5.7330842983044106e-01 0 0 0
305 1 4 -1.1168655997614629e-01 2.3299376769044365e+01 -1.4928418129483316e+00 1.0584949191346695e+01 0 0 -1
265 1 4 -1.4856474734540093e-01 1.3552779415523695e+01 7.6415519230737639e+00 5.6805618936504176e+00 0 0 0
316 1 4 -1.3957281197946933e-01 1.6298984273624988e+01 4.6860760157846801e+00 4.4408445810528097e+00 0 0 0
246 1 4 -1.2951260242614077e-01 2.1254623808707201e+01 8.9538916464714013e+00 9.0923644428596866e+00 -1 0 0
241 1 4 -1.5911999306772778e-01 -3.3319991577727124e+00 2.8466681180945348e+00 3.5557936202475506e+00 0 0 0
193 1 3 6.2144943648257470e-02 -2.8045484534673588e+00 1.6953394426959547e+00 3.8152093041845880e+00 0 0 0
145 1 3 -1.6581352395726254e-01 2.5869853867343849e+01 5.7408529955360277e-01 2.6812558205804735e+00 -1 0 0
259 1 4 -1.4545733216704823e-01 -3.8772340595229275e+00 2.6485914623575364e+00 1.0468884255217873e+01 0 0 0
293 1 4 -1.1838033640037740e-01 2.1694368370281488e+01 5.0313073748926547e+00 1.1220943071538798e+01 0 0 0
284 1 4 -1.7615487433776816e-01 1.6205784043444982e+01 6.3380075486961625e+00 1.8596719905223726e+00 0 0 1
2 1 1 1.8889322963675029e-02 1.5490067530787677e+01 8.6247411608435414e+00 8.0424132834741471e+00 0 0 0
12 1 1 -1.6835716995161048e-03 1.9819493462115055e+01 5.8105676013046317e+00 1.0761394958722186e+00 0 0 0
15 1 1 2.3961284142242304e-02 1.7996034538927464e+01 5.2952510593839519e-01 8.9553406907630269e+00 0 0 0
16 1 1 3.9029164430709050e-02 1.5526975914815155e+01 1.2520724719993893e+01 3.2794464773680030e+00 0 0 0
18 1 1 -3.8237536114024140e-03 1.7938588961716810e+01 7.8845414106625880e+00 7.6603974710993379e+00 0 0 0
28 1 1 2.5558082806179706e-02 1.7889639397694506e+01 4.2124711053811534e+00 1.6796836466802532e+00 0 0 0
31 1 1 3.2927172891587385e-02 1.7499232838538799e+01 2.7437536340924469e+00 9.9791523530484376e+00 0 0 0
32 1 1 3.3325424995247557e-02 1.7674030798778386e+01 1.1632468382831327e+01 2.3918232383737097e+00 0 0 0
34 1 1 -6.0670057492767659e-04 1.7342483579120554e+01 9.2658973557255635e+00 9.6604494360045514e+00 0 0 0
44 1 1 4.5804658753238511e-02 1.9870650759540432e+01 4.8145817980859364e+00 3.3087469300039016e+00 0 0 0
47 1 1 -4.1891894444944788e-03 1.9903367786790593e+01 1.8756545958133657e+00 9.8925213018714864e+00 0 0 0
48 1 1 1.8793501032753179e-02 2.1494983558864320e+01 3.7173139953950107e-02 3.6148543049483459e+00 0 1 0
50 1 2 1.6510646499946785e-01 1.5627454831117827e+01 9.5786755728926671e+00 7.4606989622963988e+00 0 0 0
60 1 2 1.5515275079133120e-01 2.0407804067811959e+01 4.9942942800979750e+00 5.9830980903305031e-01 0 0 0
63 1 2 1.5370676932387939e-01 1.8098922625063658e+01 9.7227007223163930e-01 7.9372329694070514e+00 0 0 0
64 1 2 1.4595723378581613e-01 1.9093425546807893e+01 -7.0635969272476484e-01 2.3398052903433930e+00 0 1 0
66 1 2 2.0718151165735305e-01 1.4384729007186809e+01 8.4095790410889322e+00 7.9933610371460917e+00 0 0 0
76 1 2 2.3825137531977622e-01 2.0088406466100849e+01 6.6482621043651147e+00 4.8299054321346735e-01 0 0 1
79 1 2 2.0813867971882288e-01 1.7488765491753362e+01 -5.0760696325060217e-01 8.8366950696694033e+00 0 0 0
80 1 2 1.6975298829219049e-01 1.4573385800917841e+01 1.2148364406345543e+01 3.7002226323754783e+00 0 0 0
82 1 2 2.1991418393069984e-01 1.8626563449232165e+01 7.1172369135576430e+00 7.3236402161886973e+00 -1 0 0
92 1 2 1.8118678011079184e-01 1.6812857087181083e+01 4.0394702863386138e+00 1.7365238703908230e+00 0 0 0
95 1 2 1.7992396181443632e-01 1.6764374537486013e+01 3.4395724522745681e+00 1.0496750589408983e+01 0 0 0
96 1 2 2.3563271425603394e-01 1.8274865719794658e+01 1.0724153232221575e+01 2.1382045331337447e+00 0 0 0
98 1 2 1.8656472447817243e-01 1.8165384921866238e+01 8.7565216563333692e+00 7.0376783774854408e+00 0 0 0
108 1 2 1.4565848255641600e-01 1.8222486184298045e+01 3.3764008568717063e+00 1.0394338118813300e+00 0 0 0
111 1 2 1.6389020739706900e-01 1.7876212701847905e+01 3.3083177178339112e+00 9.0835515576216217e+00 0 0 0