ITEM: TIMESTEP
0
ITEM: NUMBER OF ATOMS
336
ITEM: BOX BOUNDS xy xz yz pp pp pp
0.0000000000000000e+00 2.6364000320399999e+01 0.0000000000000000e+00
0.0000000000000000e+00 1.1574000358599999e+01 0.0000000000000000e+00
0.0000000000000000e+00 1.0708999633800000e+01 0.0000000000000000e+00
ITEM: ATOMS id type xs ys zs
1 1 0.0925461 0.355819 0.444445
2 1 0.907454 0.644181 0.555555
3 1 0.157454 0.644181 0.944445
4 1 0.342546 0.355819 0.0555548
5 1 0.907454 0.855819 0.0555548
6 1 0.092546 0.144181 0.944445
7 1 0.342546 0.144181 0.555555
8 1 0.157454 0.855819 0.444445
9 1 0.592546 0.355819 0.444445
10 1 0.407454 0.644181 0.555555
11 1 0.657454 0.644181 0.944445
12 1 0.842546 0.355819 0.0555548
13 1 0.407454 0.855819 0.0555548
14 1 0.592546 0.144181 0.944445
15 1 0.842546 0.144181 0.555555
16 1 0.657454 0.855819 0.444445
17 1 0.024626 0.240745 0.339818
18 1 0.975374 0.759255 0.660182
19 1 0.225374 0.759255 0.839818
20 1 0.274626 0.240745 0.160182
21 1 0.975374 0.740745 0.160182
22 1 0.024626 0.259255 0.839818
23 1 0.274626 0.259255 0.660182
24 1 0.225374 0.740745 0.339818
25 1 0.524626 0.240744 0.339818
26 1 0.475374 0.759256 0.660182
27 1 0.725374 0.759256 0.839818
28 1 0.774626 0.240744 0.160182
29 1 0.475374 0.740744 0.160182
30 1 0.524626 0.259256 0.839818
31 1 0.774626 0.259256 0.660182
32 1 0.725374 0.740744 0.339818
33 1 0.074784 0.379398 0.210842
34 1 0.925216 0.620602 0.789158
35 1 0.175216 0.620602 0.710842
36 1 0.324784 0.379398 0.289158
37 1 0.925216 0.879398 0.289158
38 1 0.074784 0.120602 0.710842
39 1 0.324784 0.120602 0.789158
40 1 0.175216 0.879398 0.210842
41 1 0.574784 0.379398 0.210842
42 1 0.425216 0.620602 0.789158
43 1 0.675216 0.620602 0.710842
44 1 0.824784 0.379398 0.289158
45 1 0.425216 0.879398 0.289158
46 1 0.574784 0.120602 0.710842
47 1 0.824784 0.120602 0.789158
48 1 0.675216 0.879398 0.210842
49 2 0.123649 0.292031 0.424132
50 2 0.876351 0.707969 0.575868
51 2 0.126351 0.707969 0.924132
52 2 0.373649 0.292031 0.0758679
53 2 0.876351 0.792031 0.0758679
54 2 0.123649 0.207969 0.924132
55 2 0.373649 0.207969 0.575868
56 2 0.126351 0.792031 0.424132
57 2 0.623649 0.292031 0.424132
58 2 0.376351 0.707969 0.575868
59 2 0.626351 0.707969 0.924132
60 2 0.873649 0.292031 0.0758679
61 2 0.376351 0.792031 0.0758679
62 2 0.623649 0.207969 0.924132
63 2 0.873649 0.207969 0.575868
64 2 0.626351 0.792031 0.424132
65 2 0.102522 0.408196 0.530199
66 2 0.897478 0.591804 0.469801
67 2 0.147478 0.591804 0.0301987
68 2 0.352522 0.408196 0.969801
69 2 0.897478 0.908196 0.969801
70 2 0.102522 0.0918037 0.0301987
71 2 0.352522 0.0918037 0.469801
72 2 0.147478 0.908196 0.530199
73 2 0.602522 0.408196 0.530199
74 2 0.397478 0.591804 0.469801
75 2 0.647478 0.591804 0.0301987
76 2 0.852522 0.408196 0.969801
77 2 0.397478 0.908196 0.969801
78 2 0.602522 0.0918037 0.0301987
79 2 0.852522 0.0918037 0.469801
80 2 0.647478 0.908196 0.530199
81 2 0.985106 0.206313 0.354008
82 2 0.0148937 0.793687 0.645992
83 2 0.264894 0.793687 0.854008
84 2 0.235106 0.206313 0.145992
85 2 0.0148937 0.706313 0.145992
86 2 0.985106 0.293687 0.854008
87 2 0.235106 0.293687 0.645992
88 2 0.264894 0.706313 0.354008
89 2 0.485106 0.206313 0.354008
90 2 0.514894 0.793687 0.645992
91 2 0.764894 0.793687 0.854008
92 2 0.735106 0.206313 0.145992
93 2 0.514894 0.706313 0.145992
94 2 0.485106 0.293687 0.854008
95 2 0.735106 0.293687 0.645992
96 2 0.764894 0.706313 0.354008
97 2 0.0503827 0.166047 0.318362
98 2 0.949617 0.833953 0.681638
99 2 0.199617 0.833953 0.818362
100 2 0.300383 0.166047 0.181638
101 2 0.949617 0.666047 0.181638
102 2 0.0503827 0.333953 0.818362
103 2 0.300383 0.333953 0.681638
104 2 0.199617 0.666047 0.318362
105 2 0.550383 0.166047 0.318362
106 2 0.449617 0.833953 0.681638
107 2 0.699617 0.833953 0.818362
108 2 0.800383 0.166047 0.181638
109 2 0.449617 0.666047 0.181638
110 2 0.550383 0.333953 0.818362
111 2 0.800383 0.333953 0.681638
112 2 0.699617 0.666047 0.318362
113 2 0.105351 0.315244 0.187229
114 2 0.894649 0.684756 0.812771
115 2 0.144649 0.684756 0.687229
116 2 0.355351 0.315244 0.312771
117 2 0.894649 0.815244 0.312771
118 2 0.105351 0.184756 0.687229
119 2 0.355351 0.184756 0.812771
120 2 0.144649 0.815244 0.187229
121 2 0.605351 0.315244 0.187229
122 2 0.394649 0.684756 0.812771
123 2 0.644649 0.684756 0.687229
124 2 0.855351 0.315244 0.312771
125 2 0.394649 0.815244 0.312771
126 2 0.605351 0.184756 0.687229
127 2 0.855351 0.184756 0.812771
128 2 0.644649 0.815244 0.187229
129 2 0.0728287 0.446659 0.134266
130 2 0.927171 0.553341 0.865734
131 2 0.177171 0.553341 0.634266
132 2 0.322829 0.446659 0.365734
133 2 0.927171 0.946659 0.365734
134 2 0.0728287 0.0533406 0.634266
135 2 0.322829 0.0533406 0.865734
136 2 0.177171 0.946659 0.134266
137 2 0.572829 0.446659 0.134266
138 2 0.427171 0.553341 0.865734
139 2 0.677171 0.553341 0.634266
140 2 0.822829 0.446659 0.365734
141 2 0.427171 0.946659 0.365734
142 2 0.572829 0.0533406 0.634266
143 2 0.822829 0.0533406 0.865734
144 2 0.677171 0.946659 0.134266
145 3 0.0868723 0.43345 0.333678
146 3 0.913128 0.56655 0.666322
147 3 0.163128 0.56655 0.833678
148 3 0.336872 0.43345 0.166322
149 3 0.913128 0.93345 0.166322
150 3 0.0868723 0.0665503 0.833678
151 3 0.336872 0.0665503 0.666322
152 3 0.163128 0.93345 0.333678
153 3 0.586872 0.43345 0.333678
154 3 0.413128 0.56655 0.666322
155 3 0.663128 0.56655 0.833678
156 3 0.836872 0.43345 0.166322
157 3 0.413128 0.93345 0.166322
158 3 0.586872 0.0665502 0.833678
159 3 0.836872 0.0665502 0.666322
160 3 0.663128 0.93345 0.333678
161 3 0.0465843 0.282725 0.461078
162 3 0.953416 0.717275 0.538922
163 3 0.203416 0.717275 0.961078
164 3 0.296584 0.282724 0.0389218
165 3 0.953416 0.782724 0.0389219
166 3 0.0465843 0.217275 0.961078
167 3 0.296584 0.217275 0.538922
168 3 0.203416 0.782725 0.461078
169 3 0.546584 0.282724 0.461078
170 3 0.453416 0.717276 0.538922
171 3 0.703416 0.717276 0.961078
172 3 0.796584 0.282724 0.0389216
173 3 0.453416 0.782724 0.0389216
174 3 0.546584 0.217276 0.961078
175 3 0.796584 0.217276 0.538922
176 3 0.703416 0.782724 0.461078
177 3 0.0278727 0.308077 0.219771
178 3 0.972127 0.691923 0.780229
179 3 0.222127 0.691923 0.719771
180 3 0.277873 0.308077 0.28023
181 3 0.972127 0.808077 0.280229
182 3 0.0278727 0.191923 0.719771
183 3 0.277873 0.191923 0.780229
184 3 0.222127 0.808077 0.219771
185 3 0.527873 0.308077 0.21977
186 3 0.472127 0.691923 0.78023
187 3 0.722127 0.691923 0.71977
188 3 0.777873 0.308077 0.28023
189 3 0.472127 0.808077 0.28023
190 3 0.527873 0.191923 0.71977
191 3 0.777873 0.191923 0.78023
192 3 0.722127 0.808077 0.21977
193 3 0.11523 0.546122 0.335114
194 3 0.88477 0.453878 0.664886
195 3 0.13477 0.453878 0.835114
196 3 0.36523 0.546122 0.164886
197 3 0.88477 0.0461223 0.164886
198 3 0.11523 0.953878 0.835114
199 3 0.36523 0.953878 0.664886
200 3 0.13477 0.0461223 0.335114
201 3 0.61523 0.546122 0.335114
202 3 0.38477 0.453878 0.664886
203 3 0.63477 0.453878 0.835114
204 3 0.86523 0.546122 0.164886
205 3 0.38477 0.0461223 0.164886
206 3 0.61523 0.953878 0.835114
207 3 0.86523 0.953878 0.664886
208 3 0.63477 0.0461223 0.335114
209 3 0.00638597 0.353996 0.531107
210 3 0.993614 0.646004 0.468893
211 3 0.243614 0.646004 0.031107
212 3 0.256386 0.353996 0.968893
213 3 0.993614 0.853996 0.968893
214 3 0.00638598 0.146004 0.031107
215 3 0.256386 0.146004 0.468893
216 3 0.243614 0.853996 0.531107
217 3 0.506386 0.353996 0.531107
218 3 0.493614 0.646004 0.468893
219 3 0.743614 0.646004 0.0311072
220 3 0.756386 0.353996 0.968893
221 3 0.493614 0.853996 0.968893
222 3 0.506386 0.146004 0.0311072
223 3 0.756386 0.146004 0.468893
224 3 0.743614 0.853996 0.531107
225 3 0.981801 0.388899 0.206894
226 3 0.0181987 0.611101 0.793106
227 3 0.268199 0.611101 0.706894
228 3 0.231801 0.388899 0.293106
229 3 0.0181986 0.888899 0.293106
230 3 0.981801 0.111101 0.706894
231 3 0.231801 0.111101 0.793106
232 3 0.268199 0.888899 0.206894
233 3 0.481801 0.388899 0.206894
234 3 0.518199 0.611101 0.793106
235 3 0.768199 0.611101 0.706894
236 3 0.731801 0.388899 0.293106
237 3 0.518199 0.888899 0.293106
238 3 0.481801 0.111101 0.706894
239 3 0.731801 0.111101 0.793106
240 3 0.768199 0.888899 0.206894
241 4 0.115709 0.605412 0.233038
242 4 0.884291 0.394588 0.766962
243 4 0.134291 0.394588 0.733038
244 4 0.365709 0.605412 0.266962
245 4 0.884291 0.105412 0.266962
246 4 0.115709 0.894588 0.733038
247 4 0.365709 0.894588 0.766962
248 4 0.134291 0.105412 0.233038
249 4 0.615709 0.605412 0.233038
250 4 0.384291 0.394588 0.766962
251 4 0.634291 0.394588 0.733038
252 4 0.865709 0.605412 0.266962
253 4 0.384291 0.105412 0.266962
254 4 0.615709 0.894588 0.733038
255 4 0.865709 0.894588 0.766962
256 4 0.634291 0.105412 0.233038
257 4 0.135527 0.578072 0.438093
258 4 0.864473 0.421928 0.561907
259 4 0.114473 0.421928 0.938093
260 4 0.385527 0.578072 0.0619067
261 4 0.864473 0.0780716 0.0619067
262 4 0.135527 0.921928 0.938093
263 4 0.385527 0.921928 0.561907
264 4 0.114473 0.0780716 0.438093
265 4 0.635527 0.578072 0.438093
266 4 0.364473 0.421928 0.561907
267 4 0.614473 0.421928 0.938093
268 4 0.885527 0.578072 0.0619067
269 4 0.364473 0.0780716 0.0619067
270 4 0.635527 0.921928 0.938093
271 4 0.885527 0.921928 0.561907
272 4 0.614473 0.0780716 0.438093
273 4 0.960336 0.315385 0.531626
274 4 0.0396641 0.684615 0.468374
275 4 0.289664 0.684615 0.031626
276 4 0.210336 0.315385 0.968374
277 4 0.0396641 0.815385 0.968374
278 4 0.960336 0.184615 0.031626
279 4 0.210336 0.184615 0.468374
280 4 0.289664 0.815385 0.531626
281 4 0.460336 0.315385 0.531626
282 4 0.539664 0.684615 0.468374
283 4 0.789664 0.684615 0.031626
284 4 0.710336 0.315385 0.968374
285 4 0.539664 0.815385 0.968374
286 4 0.460336 0.184615 0.031626
287 4 0.710336 0.184615 0.468374
288 4 0.789664 0.815385 0.531626
289 4 0.0209291 0.434066 0.607651
290 4 0.979071 0.565934 0.392349
291 4 0.229071 0.565934 0.107651
292 4 0.270929 0.434066 0.892349
293 4 0.979071 0.934066 0.892349
294 4 0.0209291 0.0659336 0.107651
295 4 0.270929 0.0659336 0.392349
296 4 0.229071 0.934066 0.607651
297 4 0.520929 0.434066 0.607651
298 4 0.479071 0.565934 0.392349
299 4 0.729071 0.565934 0.107651
300 4 0.770929 0.434066 0.892349
301 4 0.479071 0.934066 0.892349
302 4 0.520929 0.0659337 0.107651
303 4 0.770929 0.0659337 0.392349
304 4 0.729071 0.934066 0.607651
305 4 0.938627 0.355817 0.251146
306 4 0.0613735 0.644183 0.748854
307 4 0.311373 0.644183 0.751146
308 4 0.188627 0.355817 0.248854
309 4 0.0613735 0.855817 0.248854
310 4 0.938627 0.144183 0.751146
311 4 0.188627 0.144183 0.748854
312 4 0.311373 0.855817 0.251146
313 4 0.438626 0.355817 0.251146
314 4 0.561373 0.644183 0.748854
315 4 0.811373 0.644183 0.751146
316 4 0.688627 0.355817 0.248854
317 4 0.561373 0.855817 0.248854
318 4 0.438627 0.144183 0.751146
319 4 0.688627 0.144183 0.748854
320 4 0.811373 0.855817 0.251146
321 4 0.985542 0.477702 0.133918
322 4 0.0144583 0.522298 0.866082
323 4 0.264458 0.522298 0.633918
324 4 0.235542 0.477702 0.366082
325 4 0.0144583 0.977702 0.366082
326 4 0.985542 0.0222981 0.633918
327 4 0.235542 0.0222981 0.866082
328 4 0.264458 0.977702 0.133918
329 4 0.485542 0.477702 0.133918
330 4 0.514458 0.522298 0.866082
331 4 0.764458 0.522298 0.633918
332 4 0.735542 0.477702 0.366082
333 4 0.514458 0.977702 0.366082
334 4 0.485542 0.0222981 0.633918
335 4 0.735542 0.0222981 0.866082
336 4 0.764458 0.977702 0.133918
ITEM: TIMESTEP
1000
ITEM: NUMBER OF ATOMS
336
ITEM: BOX BOUNDS xy xz yz pp pp pp
-2.7487398151034625e-01 2.6680492414942670e+01 6.9790272748847483e-03
-2.1858550890566253e-01 1.1962130670729715e+01 3.4639085757463946e-02
-3.4160705919042300e-01 1.1050606692990387e+01 1.6954480322403975e-01
ITEM: ATOMS id type xs ys zs
1 1 0.086367 0.328595 0.425325
2 1 0.907097 0.665904 0.611984
3 1 0.169224 0.613032 0.928327
4 1 0.349272 0.349249 0.0478881
5 1 0.909236 0.85672 0.0800356
6 1 0.0671467 0.10967 0.941706
7 1 0.335663 0.107067 0.549032
8 1 0.144244 0.84 0.409739
9 1 0.597741 0.370447 0.423502
10 1 0.406362 0.623337 0.557226
11 1 0.660571 0.673537 0.965711
12 1 0.831309 0.373618 0.0644449
13 1 0.415777 0.898002 0.0546561
14 1 0.593302 0.116798 0.933574
15 1 0.841475 0.150111 0.573492
16 1 0.662892 0.874127 0.450425
17 1 0.0167746 0.25058 0.292332
18 1 0.988328 0.754849 0.685817
19 1 0.219343 0.749477 0.804301
20 1 0.274545 0.254203 0.153339
21 1 0.971274 0.7536 0.210798
22 1 0.020955 0.257366 0.816743
23 1 0.278061 0.230868 0.658898
24 1 0.221237 0.734701 0.332483
25 1 0.531376 0.235776 0.341258
26 1 0.472242 0.739539 0.664023
27 1 0.734075 0.761803 0.845569
28 1 0.767572 0.24178 0.158143
29 1 0.47399 0.749796 0.146674
30 1 0.527388 0.239536 0.83306
31 1 0.775144 0.258903 0.69099
32 1 0.721555 0.752794 0.335828
33 1 0.0853101 0.373096 0.207635
34 1 0.934436 0.635564 0.822708
35 1 0.187218 0.578234 0.704853
36 1 0.336742 0.367565 0.266387
37 1 0.910478 0.888657 0.298399
38 1 0.0882513 0.134579 0.730852
39 1 0.322734 0.0806912 0.771351
40 1 0.177104 0.887345 0.206985
41 1 0.573656 0.380541 0.207435
42 1 0.413256 0.620294 0.78382
43 1 0.669814 0.636973 0.744355
44 1 0.824681 0.363608 0.283881
45 1 0.416585 0.860841 0.279088
46 1 0.580406 0.114677 0.704659
47 1 0.839329 0.134147 0.795133
48 1 0.670761 0.898115 0.225216
49 2 0.114635 0.26083 0.438526
50 2 0.874893 0.725222 0.607009
51 2 0.133999 0.637327 0.970625
52 2 0.381839 0.292021 0.0330029
53 2 0.878264 0.804085 0.049007
54 2 0.0897142 0.114107 0.025436
55 2 0.369174 0.13019 0.494548
56 2 0.10911 0.795898 0.429911
57 2 0.633275 0.320291 0.435097
58 2 0.370951 0.657479 0.520054
59 2 0.63193 0.736539 0.979996
60 2 0.865736 0.342046 0.0210647
61 2 0.382689 0.870791 0.00761423
62 2 0.627867 0.153804 0.96899
63 2 0.872768 0.202347 0.533916
64 2 0.628254 0.833869 0.476989
65 2 0.090275 0.37083 0.510119
66 2 0.896984 0.616677 0.536716
67 2 0.181585 0.548948 0.998352
68 2 0.350991 0.401726 0.96429
69 2 0.909595 0.911363 0.998851
70 2 0.0421118 0.0404158 0.957294
71 2 0.316734 0.0342269 0.509051
72 2 0.141746 0.892226 0.489335
73 2 0.597158 0.432161 0.493966
74 2 0.412781 0.555797 0.489168
75 2 0.658571 0.608782 0.0388133
76 2 0.822402 0.444923 0.00734166
77 2 0.425055 0.973603 0.00488995
78 2 0.587888 0.0503853 0.00179975
79 2 0.838275 0.0850643 0.508241
80 2 0.663877 0.932807 0.523163
81 2 0.975796 0.239953 0.292234
82 2 0.0263777 0.769564 0.659928
83 2 0.251669 0.808072 0.802393
84 2 0.234306 0.239568 0.142047
85 2 0.0101994 0.724979 0.201117
86 2 0.979428 0.28189 0.806044
87 2 0.243138 0.277711 0.650697
88 2 0.260944 0.712929 0.351362
89 2 0.494086 0.199111 0.365295
90 2 0.51075 0.767632 0.647355
91 2 0.773168 0.79241 0.854644
92 2 0.728304 0.207052 0.147038
93 2 0.511355 0.71657 0.137654
94 2 0.486328 0.258909 0.845677
95 2 0.736492 0.292198 0.688016
96 2 0.759635 0.721327 0.33926
97 2 0.028975 0.164949 0.268236
98 2 0.975319 0.839172 0.713609
99 2 0.187775 0.805356 0.780691
100 2 0.290314 0.168577 0.181265
101 2 0.950906 0.679602 0.229339
102 2 0.0412677 0.339547 0.81505
103 2 0.304118 0.293033 0.69152
104 2 0.201944 0.654316 0.310831
105 2 0.551711 0.156297 0.329235
106 2 0.461729 0.827554 0.672447
107 2 0.712002 0.836743 0.813238
108 2 0.790658 0.163947 0.162827
109 2 0.450564 0.672749 0.146068
110 2 0.544707 0.322066 0.826104
111 2 0.800802 0.325694 0.705062
112 2 0.699643 0.68173 0.311231
113 2 0.111032 0.312899 0.169895
114 2 0.91253 0.6976 0.871655
115 2 0.159981 0.591934 0.635294
116 2 0.3588 0.299776 0.301333
117 2 0.883854 0.828836 0.333867
118 2 0.11684 0.201559 0.74232
119 2 0.343879 0.0872552 0.8507
120 2 0.157464 0.863355 0.127491
121 2 0.603634 0.322496 0.168509
122 2 0.385589 0.678425 0.822969
123 2 0.642359 0.694831 0.70502
124 2 0.853255 0.30466 0.321416
125 2 0.38857 0.80221 0.295965
126 2 0.607732 0.174134 0.661235
127 2 0.868206 0.1917 0.82417
128 2 0.64018 0.849797 0.183216
129 2 0.0914232 0.445644 0.143478
130 2 0.93913 0.564433 0.879654
131 2 0.204572 0.499757 0.666698
132 2 0.344322 0.419585 0.344496
133 2 0.908549 0.951586 0.366407
134 2 0.0974318 0.0904909 0.649984
135 2 0.308253 0.99507 0.797959
136 2 0.194713 0.966495 0.173294
137 2 0.564468 0.443932 0.140193
138 2 0.412086 0.552337 0.849599
139 2 0.667305 0.566601 0.685325
140 2 0.819494 0.415618 0.360424
141 2 0.416603 0.907768 0.359148
142 2 0.578123 0.0500459 0.636237
143 2 0.843169 0.071315 0.867594
144 2 0.673507 0.967843 0.159034
145 3 0.102465 0.405258 0.326886
146 3 0.902744 0.597434 0.722689
147 3 0.160313 0.550999 0.819714
148 3 0.361028 0.411377 0.155597
149 3 0.890703 0.924689 0.184163
150 3 0.0989548 0.0712669 0.842569
151 3 0.355337 0.0693323 0.665831
152 3 0.139097 0.909164 0.301757
153 3 0.599121 0.431821 0.307509
154 3 0.394537 0.568994 0.67104
155 3 0.646069 0.611708 0.859329
156 3 0.847343 0.416936 0.177893
157 3 0.398436 0.927172 0.174697
158 3 0.604358 0.0703004 0.814032
159 3 0.861409 0.0962899 0.682125
160 3 0.648284 0.933584 0.339289
161 3 0.0363435 0.272745 0.412138
162 3 0.954285 0.722421 0.584986
163 3 0.205937 0.707915 0.923872
164 3 0.300638 0.290634 0.0409146
165 3 0.95228 0.782329 0.0878533
166 3 0.0331988 0.207772 0.933416
167 3 0.296554 0.195984 0.541323
168 3 0.19164 0.774531 0.435372
169 3 0.555985 0.289707 0.44422
170 3 0.450703 0.699651 0.551319
171 3 0.710225 0.730587 0.959611
172 3 0.788004 0.300829 0.0483963
173 3 0.457603 0.815381 0.0420975
174 3 0.550666 0.193942 0.943035
175 3 0.794218 0.217988 0.576308
176 3 0.705452 0.79359 0.453822
177 3 0.0327499 0.326461 0.19385
178 3 0.984335 0.681529 0.793763
179 3 0.22309 0.671112 0.703325
180 3 0.284901 0.328274 0.257278
181 3 0.961449 0.835816 0.304422
182 3 0.0393795 0.194145 0.71382
183 3 0.278814 0.155218 0.763842
184 3 0.219485 0.807692 0.225943
185 3 0.53113 0.302808 0.228719
186 3 0.460838 0.683716 0.778403
187 3 0.721693 0.685274 0.74755
188 3 0.775176 0.299414 0.269124
189 3 0.46462 0.798337 0.265252
190 3 0.532478 0.173723 0.722265
191 3 0.78838 0.184636 0.794609
192 3 0.71774 0.832677 0.233313
193 3 0.103212 0.529515 0.352086
194 3 0.905236 0.470595 0.705714
195 3 0.137818 0.434322 0.830082
196 3 0.35955 0.539544 0.139744
197 3 0.891064 0.0501679 0.160798
198 3 0.0938417 0.944976 0.832423
199 3 0.376038 0.950353 0.659257
200 3 0.133092 0.0337115 0.327246
201 3 0.585958 0.558327 0.316283
202 3 0.394967 0.440985 0.670545
203 3 0.637614 0.484425 0.886643
204 3 0.854066 0.546232 0.183951
205 3 0.399113 0.0512153 0.19965
206 3 0.613566 0.943548 0.814388
207 3 0.863538 0.968141 0.674159
208 3 0.642935 0.0591503 0.357066
209 3 0.996575 0.332069 0.483246
210 3 0.985984 0.652296 0.500921
211 3 0.252437 0.68098 0.994264
212 3 0.265466 0.358206 0.962513
213 3 0.995922 0.81826 0.00906443
214 3 0.985385 0.180859 0.00414087
215 3 0.254298 0.157283 0.462261
216 3 0.224469 0.85204 0.506128
217 3 0.517051 0.344309 0.522952
218 3 0.490579 0.634482 0.486528
219 3 0.750675 0.668553 0.0337676
220 3 0.742866 0.353309 0.986483
221 3 0.502182 0.864049 0.977377
222 3 0.509861 0.149276 0.0280277
223 3 0.751245 0.166553 0.505638
224 3 0.750869 0.839587 0.514793
225 3 0.99696 0.422354 0.180858
226 3 0.0191922 0.580586 0.791595
227 3 0.277357 0.636367 0.686199
228 3 0.24798 0.42636 0.264501
229 3 0.00260072 0.924114 0.306252
230 3 0.00128399 0.111129 0.668361
231 3 0.232731 0.0791383 0.777182
232 3 0.269713 0.864663 0.201151
233 3 0.482106 0.368986 0.21527
234 3 0.502119 0.596644 0.801335
235 3 0.764061 0.606988 0.714127
236 3 0.732011 0.378468 0.290622
237 3 0.50816 0.869669 0.304594
238 3 0.485804 0.103526 0.706241
239 3 0.749045 0.0961582 0.818871
240 3 0.766517 0.900996 0.221078
241 4 0.0897267 0.599094 0.269711
242 4 0.901721 0.40123 0.791266
243 4 0.13687 0.375277 0.738521
244 4 0.354218 0.603324 0.229791
245 4 0.885558 0.109541 0.252502
246 4 0.0857176 0.901316 0.732213
247 4 0.372997 0.886651 0.751678
248 4 0.131129 0.100421 0.239105
249 4 0.562694 0.601578 0.228207
250 4 0.396605 0.389193 0.770394
251 4 0.634972 0.414914 0.804698
252 4 0.846613 0.595093 0.282416
253 4 0.409977 0.0894317 0.303645
254 4 0.620107 0.896108 0.715286
255 4 0.865499 0.908301 0.767854
256 4 0.636923 0.119746 0.264614
257 4 0.131703 0.572243 0.431997
258 4 0.899118 0.430437 0.601045
259 4 0.112389 0.406721 0.923981
260 4 0.383884 0.580917 0.0512113
261 4 0.875788 0.0925428 0.0596055
262 4 0.112118 0.882177 0.915852
263 4 0.380164 0.904622 0.558331
264 4 0.122026 0.0687712 0.432146
265 4 0.617033 0.626825 0.367649
266 4 0.380809 0.389333 0.578583
267 4 0.619705 0.459653 0.990202
268 4 0.880543 0.59748 0.105933
269 4 0.3804 0.122027 0.125786
270 4 0.631905 0.895033 0.908396
271 4 0.867548 0.927821 0.570517
272 4 0.628049 0.0998409 0.458058
273 4 0.951009 0.300273 0.468239
274 4 0.0315159 0.679364 0.47925
275 4 0.295841 0.712801 0.959247
276 4 0.217912 0.332034 0.964237
277 4 0.0362004 0.758 0.00443716
278 4 0.942345 0.212381 0.969664
279 4 0.211587 0.206512 0.478158
280 4 0.271698 0.837349 0.499114
281 4 0.472499 0.305071 0.5276
282 4 0.537067 0.645077 0.51722
283 4 0.796376 0.678312 0.00346379
284 4 0.702193 0.296164 0.985394
285 4 0.544727 0.81333 0.980254
286 4 0.465268 0.190636 0.0241257
287 4 0.706674 0.202642 0.527158
288 4 0.795721 0.824114 0.476952
289 4 0.0082939 0.392532 0.572226
290 4 0.964006 0.590842 0.425374
291 4 0.248943 0.637662 0.0991522
292 4 0.279895 0.439276 0.894297
293 4 0.987711 0.894253 0.930142
294 4 0.991573 0.118426 0.0964596
295 4 0.260456 0.0898109 0.377135
296 4 0.206478 0.908881 0.593317
297 4 0.531089 0.418911 0.595622
298 4 0.479692 0.587852 0.389832
299 4 0.739454 0.615336 0.130707
300 4 0.749008 0.436717 0.913426
301 4 0.496873 0.949201 0.907197
302 4 0.524718 0.0989078 0.12344
303 4 0.758566 0.10966 0.410692
304 4 0.743667 0.887901 0.614453
305 4 0.949698 0.399585 0.192758
306 4 0.0635761 0.58959 0.74739
307 4 0.313591 0.704195 0.71045
308 4 0.211426 0.434754 0.191159
309 4 0.0387777 0.917029 0.231504
310 4 0.955223 0.124898 0.693484
311 4 0.193061 0.104725 0.717474
312 4 0.310061 0.836608 0.259147
313 4 0.447195 0.35708 0.29148
314 4 0.547983 0.62141 0.788706
315 4 0.809632 0.623722 0.749059
316 4 0.692542 0.379688 0.225028
317 4 0.549296 0.885148 0.24599
318 4 0.444938 0.125243 0.760061
319 4 0.703192 0.101701 0.781014
320 4 0.808188 0.848699 0.233751
321 4 0.0102011 0.507506 0.118749
322 4 0.00138833 0.487082 0.829107
323 4 0.286663 0.549053 0.624289
324 4 0.254279 0.492842 0.350274
325 4 0.995129 0.0162531 0.361923
326 4 0.0140752 0.0252689 0.606057
327 4 0.230962 0.998955 0.853781
328 4 0.271734 0.939303 0.118755
329 4 0.483212 0.447308 0.137376
330 4 0.492234 0.496591 0.840773
331 4 0.758433 0.530632 0.635777
332 4 0.731353 0.429746 0.390146
333 4 0.503348 0.911189 0.408717
334 4 0.485641 0.0312813 0.622855
335 4 0.759829 0.018144 0.893249
336 4 0.766173 0.994132 0.166408
ITEM: TIMESTEP
2000
ITEM: NUMBER OF ATOMS
336
ITEM: BOX BOUNDS xy xz yz pp pp pp
-3.1550080188188517e-01 2.6712216065114305e+01 -4.8308926467416767e-02
-7.9534320944506298e-02 1.1694868671494520e+01 8.1023869299801224e-02
-7.7539298308567073e-01 1.1484392616885639e+01 4.1333991950001467e-02
ITEM: ATOMS id type xs ys zs
1 1 0.0946601 0.293835 0.380988
2 1 0.881868 0.69066 0.664647
3 1 0.156317 0.647533 0.918671
4 1 0.372973 0.341992 0.0852925
5 1 0.878385 0.830524 0.14276
6 1 0.101211 0.166842 0.900725
7 1 0.331211 0.134797 0.542998
8 1 0.133331 0.832414 0.338066
9 1 0.616972 0.329309 0.362863
10 1 0.395613 0.655799 0.605301
11 1 0.650621 0.68512 0.950718
12 1 0.854652 0.314341 0.113992
13 1 0.40168 0.827842 0.0937273
14 1 0.612654 0.199307 0.865764
15 1 0.860737 0.213754 0.63073
16 1 0.644095 0.801154 0.452319
17 1 0.0317076 0.256987 0.237231
18 1 0.967288 0.772228 0.725455
19 1 0.210619 0.744569 0.786811
20 1 0.293956 0.257086 0.15464
21 1 0.964584 0.781985 0.220576
22 1 0.0468632 0.235154 0.750041
23 1 0.280738 0.262032 0.671991
24 1 0.219885 0.770594 0.302211
25 1 0.534901 0.227789 0.333299
26 1 0.464085 0.747042 0.713407
27 1 0.717473 0.761922 0.822141
28 1 0.783644 0.22854 0.223948
29 1 0.468753 0.710229 0.18785
30 1 0.529921 0.259343 0.791311
31 1 0.785137 0.254089 0.746072
32 1 0.716678 0.741295 0.326484
33 1 0.10745 0.384329 0.196715
34 1 0.921692 0.625866 0.844802
35 1 0.151753 0.592716 0.71559
36 1 0.338179 0.400935 0.275526
37 1 0.903295 0.911967 0.328387
38 1 0.111132 0.0844951 0.709655
39 1 0.348622 0.141915 0.746596
40 1 0.175869 0.8857 0.15483
41 1 0.575099 0.357047 0.181008
42 1 0.40372 0.607139 0.80457
43 1 0.645556 0.646263 0.752947
44 1 0.84609 0.362649 0.316628
45 1 0.407106 0.826751 0.296597
46 1 0.584209 0.118193 0.68805
47 1 0.850101 0.120311 0.817615
48 1 0.644834 0.857117 0.256626
49 2 0.120765 0.220846 0.375923
50 2 0.854876 0.761272 0.685587
51 2 0.122939 0.701001 0.927377
52 2 0.39722 0.270126 0.105475
53 2 0.856508 0.760745 0.177374
54 2 0.130663 0.234692 0.893036
55 2 0.354234 0.145192 0.466121
56 2 0.112081 0.756418 0.3029
57 2 0.64776 0.266168 0.346262
58 2 0.367867 0.725661 0.61297
59 2 0.62669 0.756966 0.958113
60 2 0.885327 0.244359 0.117646
61 2 0.374346 0.756039 0.0848419
62 2 0.631732 0.270646 0.828989
63 2 0.883488 0.27976 0.670004
64 2 0.622646 0.718664 0.446868
65 2 0.091302 0.313579 0.468274
66 2 0.864017 0.653573 0.589558
67 2 0.158736 0.599132 0.995489
68 2 0.392177 0.382928 0.0131647
69 2 0.858672 0.849418 0.064885
70 2 0.103581 0.147455 0.985446
71 2 0.30469 0.0625966 0.521488
72 2 0.10989 0.876836 0.40061
73 2 0.635386 0.376569 0.426381
74 2 0.39074 0.607006 0.526234
75 2 0.644401 0.647783 0.0381131
76 2 0.866051 0.351682 0.0363011
77 2 0.39276 0.883717 0.0223463
78 2 0.633388 0.176255 0.94055
79 2 0.875296 0.205779 0.547032
80 2 0.638769 0.829704 0.537475
81 2 0.991086 0.253061 0.225826
82 2 0.00589127 0.783681 0.689961
83 2 0.249962 0.767804 0.778233
84 2 0.255546 0.236514 0.127958
85 2 0.00427884 0.782492 0.204376
86 2 0.00760284 0.258229 0.729837
87 2 0.241096 0.282214 0.68298
88 2 0.254434 0.759252 0.347539
89 2 0.498298 0.220448 0.372987
90 2 0.504281 0.740112 0.711806
91 2 0.75916 0.759804 0.818207
92 2 0.742866 0.20798 0.224903
93 2 0.508787 0.700054 0.180301
94 2 0.490059 0.265121 0.817451
95 2 0.743905 0.259597 0.738557
96 2 0.757831 0.737589 0.322745
97 2 0.042464 0.17336 0.19958
98 2 0.963559 0.859591 0.757701
99 2 0.196521 0.829802 0.765673
100 2 0.306741 0.169626 0.181889
101 2 0.963818 0.700826 0.260778
102 2 0.0626422 0.317308 0.71801
103 2 0.296894 0.345321 0.681197
104 2 0.217862 0.680268 0.276404
105 2 0.539989 0.134209 0.308543
106 2 0.448987 0.828462 0.734555
107 2 0.710475 0.856926 0.810536
108 2 0.797134 0.143253 0.249951
109 2 0.456027 0.620193 0.194938
110 2 0.534654 0.342212 0.74685
111 2 0.792144 0.336512 0.778377
112 2 0.712529 0.647092 0.309932
113 2 0.132046 0.316766 0.161803
114 2 0.905092 0.673533 0.91065
115 2 0.118205 0.641563 0.68689
116 2 0.356998 0.339521 0.327213
117 2 0.885068 0.868442 0.39624
118 2 0.140854 0.134525 0.669612
119 2 0.373131 0.207919 0.773078
120 2 0.161164 0.815346 0.106139
121 2 0.595696 0.312018 0.111533
122 2 0.375313 0.6589 0.850437
123 2 0.620326 0.718211 0.731733
124 2 0.870296 0.299968 0.35907
125 2 0.378289 0.768558 0.32542
126 2 0.607885 0.156267 0.622955
127 2 0.874235 0.168398 0.875675
128 2 0.621972 0.782484 0.230607
129 2 0.118289 0.464908 0.151464
130 2 0.926861 0.544282 0.890161
131 2 0.152263 0.520014 0.659573
132 2 0.329972 0.481155 0.322508
133 2 0.905824 0.998396 0.363816
134 2 0.114899 0.99952 0.674797
135 2 0.353052 0.0677209 0.803759
136 2 0.181677 0.960964 0.100064
137 2 0.557641 0.426411 0.137131
138 2 0.405982 0.535552 0.864087
139 2 0.636706 0.577082 0.694915
140 2 0.845168 0.441672 0.362631
141 2 0.408946 0.890308 0.361826
142 2 0.578425 0.0284853 0.658662
143 2 0.850404 0.035341 0.854552
144 2 0.635083 0.92524 0.194607
145 3 0.121382 0.38177 0.313491
146 3 0.879872 0.616071 0.764248
147 3 0.139327 0.565631 0.832929
148 3 0.372295 0.423753 0.181237
149 3 0.870562 0.918864 0.22756
150 3 0.118741 0.0703131 0.83027
151 3 0.363014 0.0975979 0.635379
152 3 0.134471 0.903766 0.236453
153 3 0.612594 0.399161 0.26095
154 3 0.379737 0.57911 0.697937
155 3 0.628255 0.612347 0.864098
156 3 0.866552 0.393972 0.206579
157 3 0.388518 0.887709 0.196581
158 3 0.61983 0.108668 0.781296
159 3 0.874848 0.117973 0.708036
160 3 0.626126 0.88413 0.368862
161 3 0.0447679 0.245564 0.354645
162 3 0.928467 0.750643 0.637626
163 3 0.199936 0.724397 0.904918
164 3 0.326298 0.283953 0.0554041
165 3 0.931089 0.784827 0.126032
166 3 0.0545639 0.233095 0.870204
167 3 0.295596 0.229214 0.556596
168 3 0.179015 0.785095 0.384223
169 3 0.572265 0.270258 0.413146
170 3 0.444706 0.719388 0.603893
171 3 0.703246 0.731313 0.934357
172 3 0.804842 0.255553 0.115591
173 3 0.447609 0.759939 0.0841202
174 3 0.562499 0.249022 0.889019
175 3 0.808186 0.250391 0.632812
176 3 0.697072 0.763818 0.44038
177 3 0.0550139 0.349622 0.169423
178 3 0.969562 0.679703 0.808687
179 3 0.196738 0.664141 0.69579
180 3 0.291813 0.336353 0.250165
181 3 0.95364 0.863793 0.313369
182 3 0.0638733 0.139881 0.675919
183 3 0.296664 0.184799 0.762155
184 3 0.223333 0.838295 0.19629
185 3 0.53246 0.289086 0.224464
186 3 0.451341 0.669612 0.808228
187 3 0.695454 0.694136 0.728814
188 3 0.795818 0.307801 0.318318
189 3 0.456013 0.765147 0.293446
190 3 0.535182 0.176141 0.699656
191 3 0.798553 0.167527 0.829273
192 3 0.694777 0.805142 0.234304
193 3 0.114065 0.499076 0.366246
194 3 0.871073 0.492231 0.730452
195 3 0.158501 0.444222 0.856207
196 3 0.368058 0.547017 0.143865
197 3 0.871203 0.0377338 0.175218
198 3 0.104781 0.951238 0.869726
199 3 0.363655 0.967972 0.643448
200 3 0.132142 0.0314175 0.262306
201 3 0.610308 0.527534 0.280407
202 3 0.393499 0.459779 0.663249
203 3 0.636137 0.486035 0.885507
204 3 0.85269 0.513918 0.170772
205 3 0.410864 0.00704392 0.192788
206 3 0.618742 0.990747 0.835356
207 3 0.867963 0.00248579 0.653278
208 3 0.639495 0.00479168 0.403177
209 3 0.00606221 0.308309 0.425021
210 3 0.950312 0.698 0.533195
211 3 0.247545 0.684751 0.962591
212 3 0.297367 0.351256 0.971729
213 3 0.956008 0.845452 0.0279798
214 3 0.00810519 0.182771 0.924975
215 3 0.249868 0.207849 0.485084
216 3 0.196 0.848988 0.487802
217 3 0.550049 0.352331 0.495309