LAMMPS data file via write_data, version 15 Apr 2020, timestep = 80000

336 atoms
4 atom types

-5.4542381861833000e-01 2.6909424139017798e+01 xlo xhi
4.9802366832516309e-01 1.1075976690275056e+01 ylo yhi
-1.5711900932815226e+00 1.2280189727081259e+01 zlo zhi
-1.4109773387991758e-02 3.9000591051504094e+00 1.7603296779790589e-01 xy xz yz

Masses

1 12.0107
2 1.00794
3 14.0067
4 15.9994

Atoms # full

1 1 1 5.9376514803222508e-02 9.6284217843563169e-01 3.0239519496721488e+00 4.7638289217648433e-01 0 0 0
2 1 1 4.8003320006446040e-02 2.6892877584681930e+01 8.0950778730151054e+00 7.5889340590815202e+00 0 0 0
3 1 1 6.0780739621677154e-02 6.6634023863073111e+00 8.1980819888098679e+00 8.1370451119922134e+00 0 0 0
4 1 1 4.2688209121688039e-02 9.3760633252594818e+00 3.4882493098076619e+00 -3.1796524787825287e-01 0 0 0
5 1 1 3.4419842427804173e-02 2.5806444082241768e+01 7.8553110675025426e+00 2.5011466629965815e+00 0 0 0
6 1 1 5.7549133720790631e-02 4.7864342786588310e+00 3.0592008620317279e+00 7.3521567786311568e+00 0 0 0
7 1 1 2.7930365810740942e-02 1.1617937319136798e+01 2.4997280664625050e+00 6.9694113333918679e+00 0 0 0
8 1 1 6.8271340090806085e-02 4.5746385530029574e+00 9.1489127820604921e+00 2.3346028406397319e+00 0 0 0
9 1 1 4.3554185089057118e-02 1.5341329971424095e+01 2.7990628832070943e+00 3.8171629382455414e+00 0 0 0
10 1 1 3.3070766666508697e-02 1.3627469223428101e+01 8.4496900667022921e+00 8.2995801217742500e+00 0 0 0
11 1 1 5.8762430188400105e-02 1.7774943219566389e+01 7.6643441249171511e+00 -1.2706621725245433e+00 0 0 1
12 1 1 7.2705270378325082e-02 2.1679738430187413e+01 2.0624083194949048e+00 4.3367424704628021e+00 0 0 0
13 1 1 6.7132156174058127e-02 1.2863963301594888e+01 8.2703875476724349e+00 1.1992433127522437e+00 0 0 0
14 1 1 4.6078412490289322e-02 1.7057859501463987e+01 4.6906523748680868e+00 1.0071715243699270e+01 0 0 0
15 1 1 3.8972190472267715e-02 2.4243651508759836e+01 3.8422314960463910e+00 1.0487132106891458e+01 0 0 0
16 1 1 2.7732905171096767e-02 2.0566507346816188e+01 7.2015974288120423e+00 5.1020451521741039e+00 0 0 0
17 1 1 3.6001871824055821e-02 4.4905498859430351e+00 2.9684057079963950e+00 1.1807314461007305e+01 0 0 -1
18 1 1 4.3984923998647091e-02 2.8975391343176657e+01 9.6005239858361797e+00 7.5474453606283163e+00 0 0 0
19 1 1 7.8032828086413791e-02 9.1920361773674664e+00 8.5661774524990797e+00 8.0977424951009898e+00 0 0 0
20 1 1 4.2899109962913490e-02 7.3661988040760518e+00 2.6839958494385554e+00 8.8360222766512919e-01 0 0 0
21 1 1 6.2917889950809658e-02 2.6673951849822387e+01 7.5768370473610558e+00 5.0752041793596270e-02 0 0 0
22 1 1 3.4319271856781651e-02 2.4728470933896238e+00 3.9028018877099209e+00 6.6370979504744607e+00 0 0 0
23 1 1 5.0822675110842735e-02 9.1916149933757101e+00 3.4950581728319321e+00 7.2297776633410571e+00 0 0 0
24 1 1 4.9548618248435580e-02 6.3430635749463118e+00 7.9388652007278360e+00 9.4761703709691947e-01 0 0 0
25 1 1 5.4721299515247970e-02 1.4862999232965556e+01 2.4092809073358392e+00 1.3640868952444620e+00 0 0 0
26 1 1 5.3243680459938880e-02 1.5693441238856657e+01 9.8531804421857814e+00 8.8923976215125862e+00 0 0 0
27 1 1 5.7532783655426661e-02 2.3021660555946649e+01 9.4714394338471877e+00 1.1157399147773871e+01 0 0 0
28 1 1 3.9194781416633767e-02 2.3827525639542852e+01 2.6907752295083127e+00 5.5768721444828584e+00 0 0 0
29 1 1 6.5759426877171276e-02 1.3123808009460150e+01 7.9727253431090439e+00 3.6876237024494971e+00 0 0 0
30 1 1 4.6546012927447616e-02 1.7475441336095223e+01 4.5807992059479838e+00 7.5635269450603833e+00 0 0 0
31 1 1 5.4115032015211936e-02 2.1439125747314851e+01 3.0141962475316078e+00 -1.2144871284999936e+00 0 0 1
32 1 1 4.4525946702737136e-02 2.0171443484687963e+01 7.5748918346645091e+00 2.6938694583420091e+00 0 0 0
33 1 1 4.6899675615432380e-02 2.7028196205276203e+00 3.9916605368665357e+00 -1.0676390657232000e+00 0 0 0
34 1 1 3.4826926783795051e-02 2.8180046770257441e+01 8.3672776041052703e+00 9.7045886096005454e+00 0 0 0
35 1 1 5.3593172387149009e-02 7.8844283114782074e+00 8.2892362377030224e+00 5.9297793153989629e+00 0 0 0
36 1 1 6.2324697523981190e-02 9.5058515709703464e+00 3.2496201843862766e+00 2.2011043409427549e+00 0 0 0
37 1 1 5.1378193210596619e-02 5.9403150661250581e-01 8.7199985413234629e+00 1.7795577780834040e+00 1 0 0
38 1 1 5.3314914458537560e-02 4.1575829230540435e+00 3.0471384300573949e+00 4.8910257235094683e+00 0 0 0
39 1 1 4.0326225242753005e-02 1.0803807473683808e+01 3.5930783525898642e+00 9.1581405118167574e+00 0 0 0
40 1 1 5.4905099230945900e-02 4.3020200033238325e+00 8.9466513682863535e+00 -1.8544548462740873e-01 0 0 0
41 1 1 3.8012600954658374e-02 1.7129028519891328e+01 3.0507137812545948e+00 2.0733790746138960e+00 0 0 0
42 1 1 7.2634088842558897e-02 1.3903566895475997e+01 9.3237675381603147e+00 1.0642274950333960e+01 0 0 0
43 1 1 6.2383877916653216e-02 2.0730615009764513e+01 8.9144045932745044e+00 1.0451532555751820e+01 0 0 0
44 1 1 3.9147738384618019e-02 2.3655650574430926e+01 2.9764394073335794e+00 3.0053802081293322e+00 0 0 0
45 1 1 5.3579767954820307e-02 1.0998163269379129e+01 9.0507242133954264e+00 2.7889623733535860e+00 0 0 0
46 1 1 5.5697966737132912e-02 1.9150403702281601e+01 3.4745737466540958e+00 9.1532693355829657e+00 0 0 0
47 1 1 4.5027465524092355e-02 2.6561870647696082e+01 2.6985585687759515e+00 1.0500654451677754e+01 0 0 0
48 1 1 5.9486761158391681e-02 1.8475907515507828e+01 8.4229677528219415e+00 4.3924412197173908e+00 0 0 0
49 1 2 2.3542081789721581e-01 1.5441136213688162e+00 2.0477131387963938e+00 5.1440920944893920e-01 0 0 0
50 1 2 2.2358623807095943e-01 2.6202880331575667e+01 8.8257302430194322e+00 7.9639591352730683e+00 0 0 0
51 1 2 2.5923005173377361e-01 6.1777320384234251e+00 9.1822706706307358e+00 8.1971651978265836e+00 0 0 0
52 1 2 2.2707153334086005e-01 9.8042811761460822e+00 2.4601544494935066e+00 -5.1797483471830796e-01 0 0 0
53 1 2 2.7234890691999997e-01 2.6204682667164555e+01 7.0217467370184039e+00 3.0731296509473101e+00 0 0 0
54 1 2 2.3899016992688890e-01 5.3543256660855914e+00 4.0447291833842796e+00 7.3542401432520066e+00 0 0 0
55 1 2 2.2958434230797506e-01 1.2150688199524549e+01 3.2468858909838345e+00 6.4541068463009754e+00 0 0 0
56 1 2 2.0319089100693885e-01 4.0757896767000652e+00 8.1313843642911863e+00 2.5781121829980274e+00 0 0 0
57 1 2 2.2800528864172045e-01 1.5437272706202176e+01 1.7820911685926015e+00 4.1833245606007532e+00 0 0 0
58 1 2 2.2684938394183166e-01 1.2828030668605884e+01 9.0621631460768803e+00 7.8371961929521330e+00 0 0 0
59 1 2 2.4179764896515232e-01 1.7495001862962660e+01 8.3803366189337716e+00 -4.1356395815748992e-01 0 0 1
60 1 2 2.4850622636796593e-01 2.1999806163848742e+01 9.6461629216507450e-01 4.3257766129564459e+00 0 0 0
61 1 2 2.6752045351722142e-01 1.2755782308631593e+01 7.2131717051927096e+00 7.6454121629289018e-01 0 0 0
62 1 2 2.5041498228077752e-01 1.7376712641149915e+01 5.6637554720758958e+00 1.0421846978592702e+01 0 0 0
63 1 2 2.3559272713112422e-01 2.4595886563700770e+01 4.8815217595238760e+00 1.0438788473812538e+01 0 0 0
64 1 2 2.4198456393434603e-01 2.0271097966789501e+01 6.1109915340803251e+00 5.0299708192202282e+00 0 0 0
65 1 2 2.4015036277698232e-01 4.0520134944554825e-01 3.1135787502156038e+00 1.4313022986049138e+00 0 0 0
66 1 2 2.3388955634759465e-01 2.6217266732057858e+01 7.5084005978943864e+00 6.9249161706604365e+00 0 0 0
67 1 2 2.4065170911845712e-01 6.0089338986585155e+00 7.4847768135052597e+00 8.7204671370762039e+00 0 0 -1
68 1 2 2.3510890211691002e-01 9.6931713576350447e+00 4.1413966709068308e+00 -1.0996040080494194e+00 0 0 1
69 1 2 2.4836179329096719e-01 2.4847895209796569e+01 8.1041871920175428e+00 2.8476631260231295e+00 0 0 1
70 1 2 2.5164154039552183e-01 5.2631739928107297e+00 2.4413916741802817e+00 8.1121545529678976e+00 0 0 -1
71 1 2 2.1813449926301806e-01 1.2151915919282409e+01 1.6014007705485236e+00 6.7058159400018642e+00 0 0 0
72 1 2 2.5233995485280131e-01 4.4408712272255899e+00 9.7784788741187327e+00 3.2547479015498384e+00 0 0 0
73 1 2 2.3079623477472572e-01 1.4724533043720250e+01 3.3454136407480153e+00 4.6379986366107868e+00 0 0 0
74 1 2 2.1670405718008684e-01 1.3455887549177836e+01 7.5750070050081906e+00 7.7590973809970034e+00 0 0 0
75 1 2 2.3804582266002594e-01 1.7771646046017960e+01 6.6952674093686610e+00 -7.4761867011261407e-01 0 0 0
76 1 2 2.4814537657153518e-01 2.0534283968053401e+01 1.9519345574863103e+00 4.4080191775139168e+00 0 0 1
77 1 2 2.3926673331211223e-01 1.3298433398486548e+01 8.7709757571798406e+00 3.5124399512760074e-01 0 0 1
78 1 2 2.2573462495680161e-01 1.6333915901988703e+01 4.5874461401660627e+00 1.0909066100090763e+01 0 0 -1
79 1 2 2.4208781402560750e-01 2.3294777300450527e+01 3.7963357542439993e+00 9.9453717529329548e+00 0 0 0
80 1 2 2.3676914628241055e-01 2.1305620542186908e+01 7.2672307528619111e+00 5.9219628973373473e+00 0 0 0
81 1 2 2.3300612374919674e-01 3.7264370318834921e+00 3.2250587070605889e+00 1.1071252187681555e+01 1 0 -1
82 1 2 2.4789341573990295e-01 2.3965879887217705e+00 9.8113479549696265e+00 6.8613030777462232e+00 0 0 0
83 1 2 2.1478507641827996e-01 1.0125476627831816e+01 8.2076754953451321e+00 8.6462327503478473e+00 0 0 0
84 1 2 2.2622181684396878e-01 6.3031779607687364e+00 2.7484681519389644e+00 9.1501913022810166e-01 0 0 0
85 1 2 2.5696899815809521e-01 2.6058595775353009e+01 8.0823510988984975e+00 -7.6378062742022745e-01 -1 0 0
86 1 2 2.5747105918800478e-01 2.8859523974695847e+01 3.8664431691763306e+00 6.9041742079437238e+00 0 0 0
87 1 2 2.3558807412686586e-01 8.1841585316680252e+00 3.0909510129621189e+00 6.9420659309855672e+00 0 0 0
88 1 2 2.3473310530424468e-01 7.4680177713517137e+00 8.0006866837970492e+00 9.0593705301183025e-01 0 0 0
89 1 2 2.4315188180498218e-01 1.4024868598170926e+01 2.6550063225042262e+00 6.1064589970045180e-01 0 0 0
90 1 2 2.6926914153278630e-01 1.6781088131036775e+01 9.8413341739484324e+00 8.7972165022830051e+00 0 0 0
91 1 2 2.5692271528310839e-01 2.4036544668763735e+01 9.6073531644835448e+00 1.0713440838317238e+01 0 0 0
92 1 2 2.2096613589796948e-01 2.4345207620811067e+01 3.2620538524365568e+00 6.4310302832603590e+00 0 0 0
93 1 2 2.3407839391435020e-01 1.3902338530590292e+01 7.9366241233894401e+00 4.4725579117367706e+00 0 0 0
94 1 2 2.3834050865778933e-01 1.6983368746249305e+01 4.4081983592426557e+00 6.5181164054337977e+00 0 0 0
95 1 2 2.2777669107110762e-01 2.1312490708668861e+01 2.6959923046714294e+00 -1.7090575151816223e-01 0 0 1
96 1 2 2.4636812761010721e-01 2.0669536526375346e+01 7.9084893533364449e+00 1.7369882910215941e+00 0 0 0
97 1 2 2.5141591123691082e-01 4.8278027488801794e+00 1.9485252100074564e+00 1.1523813524526666e+01 0 0 -1
98 1 2 2.2319191309145839e-01 2.8572311221042035e+01 1.0600352922467454e+01 7.7185403206732097e+00 0 0 0
99 1 2 2.4630791384437695e-01 9.3147886631119547e+00 9.6936078726330663e+00 8.3230555517916418e+00 0 0 0
100 1 2 2.2127570048735337e-01 7.4591869774200408e+00 1.6076960011696146e+00 6.4921963610093814e-01 0 0 0
101 1 2 2.7652509427258226e-01 2.7081569652127005e+01 6.6206793216426378e+00 -2.5765466673082171e-01 0 0 0
102 1 2 2.4259483534820250e-01 2.7108453347113581e+00 4.9529776278618876e+00 6.6753166965393191e+00 0 0 0
103 1 2 2.5148781534618669e-01 9.3168140075323951e+00 4.5059656758424200e+00 6.7872722599435154e+00 0 0 0
104 1 2 2.5062311345793903e-01 6.1350455823011121e+00 6.8493568303022014e+00 1.0350052147222382e+00 0 0 0
105 1 2 2.3845260299795773e-01 1.4960613481303442e+01 1.2934578389727864e+00 1.3046330676542985e+00 0 0 0
106 1 2 2.3309426278264997e-01 1.5451240059998739e+01 1.0912659399577812e+01 8.5332116277481873e+00 0 0 0
107 1 2 2.4594053393717624e-01 2.2983201289252172e+01 1.0396948350598517e+01 1.1791665640709882e+01 0 0 0
108 1 2 2.3069281102914135e-01 2.4194412421489908e+01 1.6696041732090048e+00 5.6772003613343331e+00 0 0 0
109 1 2 2.3384655714089686e-01 1.2685314155549952e+01 6.9488212191658780e+00 3.8000021903461283e+00 0 0 0
110 1 2 2.3426166772213081e-01 1.8152853895995058e+01 5.4329313129249330e+00 7.4630653116669219e+00 0 0 0
111 1 2 2.1652993898123613e-01 2.1935445061718109e+01 3.9624074860767240e+00 -9.4088930381548475e-01 0 0 1
112 1 2 2.4405568600099870e-01 1.9936346426805983e+01 6.5327977080571147e+00 2.5274684176930133e+00 0 0 0
113 1 2 2.4793121699399553e-01 3.4040041274941379e+00 3.1465963269921438e+00 -9.8431251891357585e-01 0 0 0
114 1 2 2.1677751448779431e-01 2.7603166211193194e+01 9.2275107381720183e+00 1.0077281419433191e+01 0 0 0
115 1 2 2.5414840567622965e-01 7.5982139117589949e+00 9.3007906153451430e+00 5.5638894088666042e+00 0 0 0
116 1 2 2.2207498734258493e-01 9.9873813375348028e+00 2.2203742911017263e+00 2.3419846121619283e+00 0 0 0
117 1 2 2.2661357749051364e-01 1.1869690290582360e+00 7.8879241085636469e+00 2.2023292761701230e+00 1 0 0
118 1 2 2.3791416059800097e-01 4.5210100812245395e+00 4.0347816273875976e+00 4.5798478671397733e+00 0 0 0
119 1 2 2.3770421306630529e-01 1.1139358884105643e+01 4.5977166943851966e+00 8.9658706293371804e+00 0 0 0
120 1 2 2.5811956332000630e-01 3.5800075411175065e+00 8.1492608789692529e+00 -3.8006020796569251e-01 0 0 0
121 1 2 2.4820796663065006e-01 1.7571788045316108e+01 2.0444066868483026e+00 2.1436716182733946e+00 0 0 0
122 1 2 2.6916502961678057e-01 1.3337123955721220e+01 1.0297639327632265e+01 1.0475907144614290e+01 0 0 0
123 1 2 2.3693433430516625e-01 2.0123385601234297e+01 9.8084911672974293e+00 1.0875648185048901e+01 0 0 0
124 1 2 2.4013469934572201e-01 2.4012692863228114e+01 2.1274511247228562e+00 2.4900427333042892e+00 0 0 0
125 1 2 2.6059211708360613e-01 1.0186692619329918e+01 8.2587923651984383e+00 2.9264454854883102e+00 0 0 0
126 1 2 2.5845038098019457e-01 1.9893686528441251e+01 4.3213494509246608e+00 9.2014472434659158e+00 0 0 0
127 1 2 2.3465779257858640e-01 2.7259651908679523e+01 3.5513358129354966e+00 1.0328970700788108e+01 0 0 0
128 1 2 2.4417590900863340e-01 1.7581916633912872e+01 7.8168763317693299e+00 4.4376422970061826e+00 0 0 0
129 1 2 2.5041210679839931e-01 3.2953802864752895e+00 4.8978922252475767e+00 -1.2288059393022777e+00 0 0 0
130 1 2 2.4066465161716363e-01 2.8636229402646681e+01 7.9378885836497268e+00 1.0605444438279150e+01 0 0 0
131 1 2 2.3394017293706473e-01 7.9413508815300000e+00 7.7032387242452867e+00 4.9785030489183164e+00 0 0 0
132 1 2 2.4494835671499496e-01 9.7670748112142309e+00 3.7392451382711709e+00 3.2273814899908224e+00 0 0 0
133 1 2 2.0467073832680555e-01 1.2974567118124325e+00 9.5553595585634135e+00 1.9679805475049132e+00 1 0 0
134 1 2 2.4507719739554024e-01 4.2252000753132881e+00 2.4305598000964528e+00 3.9192296095052841e+00 0 0 0
135 1 2 2.4736904256608233e-01 1.0893132582044576e+01 3.4720231522943457e+00 1.0241022067201520e+01 0 0 0
136 1 2 2.6400207240264284e-01 4.1940135875793683e+00 9.6792904208578960e+00 -1.0271368930339029e+00 0 0 0
137 1 2 2.5794493659954554e-01 1.8007477421361823e+01 3.6277164270271820e+00 1.7799387986689275e+00 0 0 0
138 1 2 2.7100697875328572e-01 1.3729698867370320e+01 9.1294770769703995e+00 1.1730115099763207e+01 0 0 0
139 1 2 2.6416885451802452e-01 2.0150267761938164e+01 8.5479702281010645e+00 9.5382499917594803e+00 0 0 0
140 1 2 2.1350947602787773e-01 2.3899432735334507e+01 3.7609223453904805e+00 2.2640237111213950e+00 0 0 0
141 1 2 2.3430649314465435e-01 1.0460288213425574e+01 9.9861668708841584e+00 2.9744150464061061e+00 0 0 0
142 1 2 2.2971774154028468e-01 1.9816662843131368e+01 2.5994353558608720e+00 9.2775824334380772e+00 0 0 0
143 1 2 2.3004843705946365e-01 2.7106335707273445e+01 1.8685291116869123e+00 1.0011025328326852e+01 0 0 0
144 1 2 2.2978808157987834e-01 1.8046948812512362e+01 9.4471621626231936e+00 4.5470558034654003e+00 0 0 0
145 1 3 -2.8222217761094137e-01 2.0510463117690478e+00 4.0744172777561642e+00 2.9862469495783128e-01 0 0 0
146 1 3 -2.5266221808246708e-01 2.7271720026215156e+01 7.4572563649108394e+00 8.9255147177279763e+00 0 0 0
147 1 3 -2.6678702374905156e-01 6.6654583706689294e+00 7.8639147005312857e+00 6.6812174870285403e+00 0 0 0
148 1 3 -2.7173862734824183e-01 1.0072096444745577e+01 3.8747846797475991e+00 9.5309884366522146e-01 0 0 0
149 1 3 -2.6352717662679515e-01 2.6803716770623048e+01 8.9081868297178310e+00 2.6505205458155707e+00 0 0 0
150 1 3 -2.8556093552214701e-01 5.0620221369072560e+00 2.5276763956207833e+00 6.0040216553273105e+00 0 0 0
151 1 3 -2.4951227528150111e-01 1.1787343437563221e+01 2.7237291571923921e+00 8.4469523502459811e+00 0 0 0
152 1 3 -3.1058766065849736e-01 3.8887917141340291e+00 9.6456587193682353e+00 1.1003393436321516e+00 0 0 0
153 1 3 -2.4962319235627234e-01 1.6695340628937295e+01 3.3760606806941573e+00 3.4634546216588324e+00 0 0 0
154 1 3 -2.5650769519872152e-01 1.3230486910374788e+01 8.3505670088262747e+00 9.7447251591422486e+00 0 0 0
155 1 3 -2.6448288777257234e-01 2.0632369506889496e+01 7.8620158653546364e+00 1.1505787172172267e+01 0 0 0
156 1 3 -2.7990952552452197e-01 2.2200040680533213e+01 2.6382962615274765e+00 3.0664535543157685e+00 0 0 0
157 1 3 -2.4031954314150705e-01 1.1546614317658854e+01 8.9920483240168245e+00 1.4243575845679932e+00 0 0 0
158 1 3 -2.3131989681854440e-01 1.8219997337256753e+01 3.7409966678706650e+00 1.0293521112435123e+01 0 0 0
159 1 3 -2.7492798184472494e-01 2.5293127546543218e+01 3.0218478345529944e+00 9.7757870926938431e+00 0 0 0
160 1 3 -2.4432526972480867e-01 1.9398553506077153e+01 8.0485795181919073e+00 5.4985498808222735e+00 0 0 0
161 1 3 -2.4790271762103266e-01 2.8134285911815105e-02 2.7938790016369843e+00 -6.3356524495972111e-01 0 0 0
162 1 3 -2.7728507156107907e-01 2.7886000955273989e+01 8.8453651824954669e+00 6.8140999777808311e+00 0 0 0
163 1 3 -2.7742577349698150e-01 7.9473491053033687e+00 8.3492795342354142e+00 8.8881565744355076e+00 0 0 0
164 1 3 -2.7070788271273238e-01 7.9006335982266460e+00 3.2604573434873543e+00 -3.8936183724563267e-01 0 0 0
165 1 3 -2.5196735347622723e-01 2.5695221756832261e+01 7.2369141755671524e+00 1.1200900081733436e+00 0 0 0
166 1 3 -2.5012880317119696e-01 3.3584622855617257e+00 3.3830241764166904e+00 7.7326583704807881e+00 0 0 0
167 1 3 -2.5991722181214522e-01 1.0198349597037117e+01 2.6698284642177121e+00 6.4943656411553601e+00 0 0 0
168 1 3 -3.0147409758528887e-01 5.9443234096229425e+00 8.5740604186991618e+00 2.2486009564110661e+00 0 0 0
169 1 3 -2.6802603650813500e-01 1.4318122869361911e+01 2.5837528811599419e+00 2.7433512341980482e+00 0 0 0
170 1 3 -2.5621423556840933e-01 1.5003616805331315e+01 8.9815903922307214e+00 7.9252107791102411e+00 0 0 0
171 1 3 -2.6654044109537883e-01 2.2991431159137811e+01 8.3947149775724199e+00 1.2237331839736562e+01 0 0 0
172 1 3 -2.7413109728547363e-01 2.2293995128937176e+01 2.4638741003307016e+00 5.6265410276573311e+00 0 0 0
173 1 3 -2.6449946380635725e-01 1.3788751811778750e+01 8.0088883824028301e+00 2.3334754352774554e+00 0 0 0
174 1 3 -2.3847072686473700e-01 1.6481123478396206e+01 4.8750844610475488e+00 8.6719847662782410e+00 0 0 0
175 1 3 -2.4717946490763038e-01 2.4083128663668859e+01 3.5914847068390623e+00 1.1929722649788070e+01 0 0 0
176 1 3 -2.2556806788131872e-01 2.1218963005970608e+01 7.3866833597830546e+00 3.7606024301395085e+00 0 0 0
177 1 3 -2.5598255317330709e-01 5.7253436310901016e+00 3.8467188197908153e+00 1.1616784680164994e+01 0 0 -1
178 1 3 -2.6633971053415240e-01 2.9278097492057306e+01 9.0676954884402114e+00 8.9120973273487518e+00 0 0 0
179 1 3 -2.7007130605329344e-01 9.2061968693166598e+00 8.3705088651140507e+00 6.6446033446806823e+00 0 0 0
180 1 3 -2.5532879103677025e-01 8.0379092867710966e+00 3.0056082060326399e+00 2.1994718841670733e+00 0 0 0
181 1 3 -2.6380416976323967e-01 4.1635820422885012e-01 8.4215341497334411e+00 3.3523859909029885e-01 1 0 0
182 1 3 -2.5613534381033204e-01 2.7531337467986079e+00 3.3822970352977872e+00 5.2263233646359719e+00 0 0 0
183 1 3 -2.3265781700820071e-01 9.3504110831564731e+00 3.5998027861019724e+00 8.7150657958368125e+00 0 0 0
184 1 3 -2.5236023751507514e-01 5.6612635669964657e+00 8.3959212274397785e+00 -3.0660663652436582e-01 0 0 0
185 1 3 -2.4560738420366088e-01 1.6126758634668629e+01 3.0735437493546960e+00 9.5118608664071580e-01 0 0 0
186 1 3 -2.6562128607254593e-01 1.5284441068479730e+01 9.7874347851378829e+00 1.0337352062200623e+01 0 0 0
187 1 3 -2.3996322485411486e-01 2.2029932233030401e+01 9.4806467030818418e+00 1.0044160468203463e+01 0 0 0
188 1 3 -2.3646681557939248e-01 2.4413431944324842e+01 3.1868424710161181e+00 4.2910279890920027e+00 0 0 0
189 1 3 -2.7485357934641796e-01 1.1990879720358253e+01 8.8834330486480617e+00 3.9507240614225543e+00 0 0 0
190 1 3 -2.6028314453256995e-01 1.8541152687257480e+01 3.5566468934149267e+00 7.7867443528176032e+00 0 0 0
191 1 3 -2.6567410558756432e-01 2.6472498276170235e+01 2.4858606690563256e+00 1.1987677236302275e+01 0 0 0
192 1 3 -2.7901530954770637e-01 1.8888458286562994e+01 8.3147559943608051e+00 2.9718028432545802e+00 0 0 0
193 1 3 5.0263882579637320e-01 1.8042711451327085e+00 5.4296766193200563e+00 9.0471237044675856e-01 0 0 0
194 1 3 4.7138731513313575e-01 2.7874839832476148e+01 6.0641291540123907e+00 8.7417292004865566e+00 0 0 0
195 1 3 4.8344983192576813e-01 6.4129751535598114e+00 6.3702764037494877e+00 6.4498143208739300e+00 0 0 0
196 1 3 5.0608088780869354e-01 1.0129821563819350e+01 5.3965656870437106e+00 1.1136089892946122e+00 0 0 0
197 1 3 5.0342370087306620e-01 2.6218233699015382e+01 1.0314617499493778e+01 2.4390105846024728e+00 0 -1 0
198 1 3 5.1062240286280813e-01 5.1796944651895416e+00 1.0207209758369968e+00 5.9138548556208397e+00 0 1 0
199 1 3 4.9432020721493103e-01 1.1985286312670350e+01 1.3850098669918331e+00 9.1911643752010921e+00 0 1 0
200 1 3 4.9685397454360331e-01 4.1228658108687561e+00 5.6206131211497579e-01 9.6755034950736363e-01 0 0 0
201 1 3 4.9456911422713173e-01 1.6764738327620773e+01 4.8950841057451200e+00 3.6810710978698751e+00 0 0 0
202 1 3 4.6941229830954961e-01 1.3481573224102894e+01 6.9327503424603236e+00 1.0288072839894538e+01 0 0 0
203 1 3 5.1186972183172808e-01 2.0397774853534319e+01 6.4710012023582122e+00 1.0874489921217839e+01 0 0 0
204 1 3 4.8230946560205085e-01 2.1341960940242856e+01 3.8101153153413736e+00 2.5980885781285332e+00 0 0 0
205 1 3 4.6179890862396339e-01 1.1457023232201653e+01 1.0332919256154451e+01 6.8690111429684331e-01 0 -1 0
206 1 3 4.7475847104048047e-01 1.7646396453749531e+01 2.4279284449828293e+00 1.0821290176315108e+01 0 1 0
207 1 3 4.7584158625706885e-01 2.4735113716120026e+01 1.7315881935591571e+00 9.1752513942154774e+00 0 1 0
208 1 3 4.8612951277872962e-01 1.9834179176365687e+01 9.3359073608756802e+00 6.2585949934702390e+00 0 -1 0
209 1 3 4.7198443118148947e-01 2.6182146953455579e+01 3.5702568772863881e+00 -5.5879853691034431e-01 -1 0 0
210 1 3 4.9813526989588214e-01 2.8506964623089111e+01 8.0456123482251378e+00 5.6618208578756315e+00 0 0 0
211 1 3 4.6220869310721041e-01 8.0763061519188994e+00 7.2745041274433762e+00 9.9735085869734785e+00 0 0 -1
212 1 3 4.9316723123941897e-01 7.1923516569674231e+00 4.5998116896667121e+00 -6.6677006519524529e-01 0 0 1
213 1 3 4.8923451896833792e-01 2.4298187767931523e+01 7.3679384392107226e+00 5.1605230992868245e-01 0 0 1
214 1 3 4.9510931674039288e-01 2.5838737956767881e+00 2.3186174353437621e+00 8.4840800340467180e+00 0 0 -1
215 1 3 4.9532166381819998e-01 9.6272024700008139e+00 1.3900875191487851e+00 5.8613497065231748e+00 0 0 0
216 1 3 4.8191663987323574e-01 7.0107838002671770e+00 9.5980244648868904e+00 2.6670352344554411e+00 0 0 0
217 1 3 4.7663103998574374e-01 1.3296545837757284e+01 3.7201801097364946e+00 2.7551910102172457e+00 0 0 0
218 1 3 4.5321569091016339e-01 1.5935066683593682e+01 7.8676380507461152e+00 7.4655262351451963e+00 0 0 0
219 1 3 4.9784070296497335e-01 2.4013443517556880e+01 7.2894394028201575e+00 1.1948086829588149e+01 0 0 -1
220 1 3 5.0511516295380410e-01 2.1555516848863768e+01 3.6017994789919334e+00 6.2995461826340975e+00 0 0 1
221 1 3 5.1392047348946113e-01 1.5028034523459420e+01 8.9199382655367714e+00 2.3683681885663916e+00 0 0 1
222 1 3 5.0333448051664420e-01 1.5223454251896982e+01 4.0922475035254458e+00 8.3903705263091108e+00 0 0 -1
223 1 3 4.8647429143941873e-01 2.2900893650250151e+01 2.6329250343043360e+00 1.2239030646406377e+01 0 0 0
224 1 3 4.5675192194341085e-01 2.2151012268454114e+01 8.5785644230446003e+00 3.7497045305267624e+00 0 0 0
225 1 3 4.7796954090277116e-01 5.3077397234015873e+00 5.1049646712218708e+00 1.0879106742814816e+01 1 0 -1
226 1 3 4.6511442703888045e-01 3.0794354648994613e+00 8.2225124697160155e+00 9.0010678381189102e+00 0 0 0
227 1 3 4.8070185682044064e-01 1.0182537667053783e+01 7.2525443755792178e+00 6.1988670886973782e+00 0 0 0
228 1 3 4.9744171348557825e-01 7.3101514748856458e+00 4.1397406895754578e+00 2.9075215209289782e+00 0 0 0
229 1 3 4.9279485016973557e-01 4.8071053345523451e-01 9.7269258830830516e+00 -5.2874995804242308e-01 0 0 0
230 1 3 4.8261132551176411e-01 1.8926728575470122e+00 2.1588848383096648e+00 4.8973310106450505e+00 1 0 0
231 1 3 4.6968631726479287e-01 8.5676648279409502e+00 2.4833708608413669e+00 9.3925281015043467e+00 0 0 0
232 1 3 4.5824691255039690e-01 6.6110639098386947e+00 9.3373927058484973e+00 -1.0773940210294617e+00 0 0 0
233 1 3 5.0796511033068081e-01 1.5903714477558957e+01 4.5245149527980795e+00 4.9082060547371764e-01 0 0 0
234 1 3 5.0760321843736567e-01 1.6335539130586554e+01 8.9525667034626011e+00 1.1079212761882074e+01 0 0 0
235 1 3 4.7104633306251420e-01 2.2634012626023672e+01 8.7310155596258774e+00 8.8383653266371063e+00 0 0 0
236 1 3 4.6697454910299002e-01 2.4714760632851288e+01 4.6914629247024289e+00 4.3919937921154082e+00 0 0 0
237 1 3 4.8676394112349042e-01 1.2496763332958301e+01 1.0172471363054697e+01 4.5458239649890837e+00 0 0 0
238 1 3 5.0397901510560117e-01 1.8091089131933508e+01 2.1754959717903111e+00 7.2591618656425823e+00 0 0 0
239 1 3 4.7172244204330982e-01 2.2528848229389595e+01 8.2272828498006012e-01 -1.5119035497813333e+00 0 0 1
240 1 3 4.9998289339795149e-01 1.8777247059409060e+01 9.6612218270805812e+00 2.2339302040916023e+00 0 0 0
241 1 4 -4.0834657026471904e-01 8.6819999653123392e-01 5.6132959979775290e+00 1.7729793547162482e+00 0 0 0
242 1 4 -3.8207478381897153e-01 2.7290115921044880e+01 5.1498355247745851e+00 8.0639552403851091e+00 0 0 0
243 1 4 -3.6423626680292237e-01 5.4178669165589088e+00 6.0472849636306520e+00 5.6845331416591494e+00 0 0 0
244 1 4 -3.7081246069033275e-01 9.3826503311171106e+00 5.9744985623791136e+00 2.0005022920947959e+00 0 0 0
245 1 4 -3.6277712460532185e-01 2.5372311731401364e+01 1.0770384487771064e+01 3.3009064453865893e+00 0 -1 0
246 1 4 -4.0575126444076226e-01 5.2103687093768052e+00 1.0881373810710034e+01 6.9915704810049046e+00 0 0 0
247 1 4 -3.9182156429271420e-01 1.2607517482874229e+01 1.4381256576834218e+00 1.0311458529183435e+01 0 1 0
248 1 4 -4.2937684981162610e-01 4.1446090326156213e+00 1.3419374160085806e+00 2.0102413697684964e+00 0 0 0
249 1 4 -4.2328193937336966e-01 1.7878025236688551e+01 5.4584915565791743e+00 3.9730036314267840e+00 0 0 0
250 1 4 -3.5728876923724406e-01 1.4729064481357522e+01 6.5089890792659126e+00 1.0349938593520703e+01 0 0 0
251 1 4 -3.7866471953945480e-01 2.1368442460613096e+01 5.6556417011884692e+00 1.0935661257209031e+01 0 0 0
252 1 4 -4.2246365048145590e-01 2.0181641438367691e+01 3.6128519916703592e+00 2.0662064745382973e+00 0 0 0
253 1 4 -3.9633428933861770e-01 1.2394372692931920e+01 6.2726392490907878e-01 8.8201626409610334e-01 0 0 0
254 1 4 -3.4692673409150449e-01 1.6381248446070867e+01 2.1755357299461924e+00 1.0703621495883739e+01 0 1 0
255 1 4 -3.9660634296776770e-01 2.5429026635903604e+01 1.1182171079153791e+00 8.2666499535466240e+00 0 1 0
256 1 4 -3.8082570964651113e-01 2.0452417572640638e+01 1.0307698361264400e+01 5.6741917902422001e+00 0 -1 0
257 1 4 -4.5268842709803403e-01 2.6317757313293590e+00 6.3855351275738785e+00 5.5941947138208636e-01 0 0 0
258 1 4 -3.5807370824948676e-01 2.8818724227815768e+01 5.6662126101948376e+00 9.5593681211086565e+00 0 0 0
259 1 4 -4.2565803837432181e-01 7.2814890191923940e+00 5.4444293835555895e+00 6.6770856277084594e+00 0 0 0
260 1 4 -3.6262431074675638e-01 1.1024952695955406e+01 6.0257768253828399e+00 4.2671891279884377e-01 0 0 0
261 1 4 -3.9041271363502944e-01 2.6692689845438082e+01 1.1046508036332369e+01 1.5084414075346659e+00 0 -1 0
262 1 4 -3.8451198334244813e-01 5.2455837915372046e+00 1.0979548806858688e+01 4.7802720066877589e+00 0 0 0
263 1 4 -4.4514493424039481e-01 1.1491781496955827e+01 1.0815605980396345e+01 8.8099665231706474e+00 0 0 0
264 1 4 -4.0018109948227765e-01 3.9900185781658171e+00 1.1010154679772506e+00 -2.0018324951954214e-01 0 0 0
265 1 4 -3.6039305348601602e-01 1.5658914147439148e+01 5.5831906224719710e+00 3.7078530628278292e+00 0 0 0
266 1 4 -3.3267482623670863e-01 1.2537242349743089e+01 6.1743346823034448e+00 1.0715227967268891e+01 0 0 0
267 1 4 -4.2858136305602401e-01 1.9428399555520279e+01 6.3409552378852503e+00 1.0007847505168602e+01 0 0 0
268 1 4 -3.9415571041970998e-01 2.1765555407935331e+01 4.9800856327038652e+00 2.8916479138730775e+00 0 0 0
269 1 4 -3.8195217606208798e-01 1.0496560184122815e+01 1.0541058293254231e+01 -1.7341462802422902e-01 0 -1 0
270 1 4 -3.3713546452670967e-01 1.8459336602493877e+01 1.6306097974086562e+00 1.1405317685268466e+01 0 1 0
271 1 4 -3.8076346921985782e-01 2.3729034445543256e+01 1.1426811567175332e+00 9.7241294825554103e+00 0 1 0
272 1 4 -3.4409123057411656e-01 1.9568508362390965e+01 9.3917647977018426e+00 7.5153022205136359e+00 0 -1 0
273 1 4 -3.8542821083911888e-01 2.6244482459610534e+01 4.8829604390966415e+00 -5.5307672446937972e-01 0 0 0
274 1 4 -3.6115545330056054e-01 2.8290399309957738e+01 6.7529243168463431e+00 5.6104645369066422e+00 -1 0 0
275 1 4 -3.4608526799947492e-01 8.7914204649859986e+00 6.2226878886686299e+00 9.6966678070527621e+00 0 0 -1
276 1 4 -3.7311067235647899e-01 5.9890756638968732e+00 4.6078039132490085e+00 -1.1226924824042390e+00 0 0 1
277 1 4 -3.7621485807911137e-01 2.4151248070421261e+01 7.5824680281412853e+00 -7.5246175964718265e-01 -1 0 1
278 1 4 -4.6252821765628349e-01 2.8756848573968419e+01 2.3916217340104349e+00 8.5268839556407787e+00 0 0 -1