ITEM: TIMESTEP
0
ITEM: NUMBER OF ATOMS
672
ITEM: BOX BOUNDS xy xz yz pp pp pp
0.0000000000000000e+00 2.9982000351000000e+01 0.0000000000000000e+00
0.0000000000000000e+00 1.2154000282300000e+01 0.0000000000000000e+00
0.0000000000000000e+00 2.0017000198400002e+01 0.0000000000000000e+00
ITEM: ATOMS id type xs ys zs
1 1 0.142499 0.0703279 0.155517
2 1 0.642499 0.0703279 0.155517
3 1 0.357501 0.929672 0.655517
4 1 0.857501 0.929672 0.655517
5 1 0.392499 0.929672 0.155517
6 1 0.892499 0.929672 0.155517
7 1 0.107501 0.0703279 0.655517
8 1 0.607501 0.0703278 0.655517
9 1 0.142499 0.570327 0.155518
10 1 0.642499 0.570327 0.155518
11 1 0.357501 0.429673 0.655518
12 1 0.857501 0.429673 0.655518
13 1 0.392499 0.429673 0.155518
14 1 0.892499 0.429673 0.155518
15 1 0.107501 0.570327 0.655518
16 1 0.607501 0.570327 0.655518
17 1 0.189027 0.045689 0.151874
18 1 0.689027 0.0456889 0.151874
19 1 0.310973 0.954311 0.651874
20 1 0.810973 0.954311 0.651874
21 1 0.439027 0.954311 0.151874
22 1 0.939027 0.954311 0.151874
23 1 0.0609732 0.0456889 0.651874
24 1 0.560973 0.0456889 0.651874
25 1 0.189027 0.545688 0.151874
26 1 0.689027 0.545688 0.151874
27 1 0.310973 0.454312 0.651874
28 1 0.810973 0.454312 0.651874
29 1 0.439027 0.454312 0.151874
30 1 0.939027 0.454312 0.151874
31 1 0.0609731 0.545688 0.651874
32 1 0.560973 0.545688 0.651874
33 1 0.214979 0.114513 0.109867
34 1 0.714979 0.114513 0.109867
35 1 0.285021 0.885487 0.609867
36 1 0.785021 0.885487 0.609867
37 1 0.464979 0.885487 0.109867
38 1 0.964979 0.885487 0.109867
39 1 0.0350213 0.114513 0.609867
40 1 0.535021 0.114513 0.609867
41 1 0.214979 0.614514 0.109866
42 1 0.714979 0.614515 0.109866
43 1 0.285021 0.385486 0.609866
44 1 0.785021 0.385485 0.609866
45 1 0.464979 0.385486 0.109866
46 1 0.964979 0.385485 0.109866
47 1 0.0350211 0.614515 0.609866
48 1 0.535021 0.614515 0.609866
49 1 0.195097 0.202066 0.0726532
50 1 0.695097 0.202066 0.0726532
51 1 0.304903 0.797934 0.572653
52 1 0.804903 0.797934 0.572653
53 1 0.445097 0.797934 0.0726532
54 1 0.945097 0.797934 0.0726532
55 1 0.0549028 0.202066 0.572653
56 1 0.554903 0.202066 0.572653
57 1 0.195097 0.702065 0.0726532
58 1 0.695097 0.702065 0.0726532
59 1 0.304903 0.297935 0.572653
60 1 0.804903 0.297935 0.572653
61 1 0.445097 0.297935 0.0726532
62 1 0.945097 0.297935 0.0726532
63 1 0.054903 0.702065 0.572653
64 1 0.554903 0.702065 0.572653
65 1 0.148264 0.221897 0.078052
66 1 0.648264 0.221898 0.078052
67 1 0.351736 0.778103 0.578052
68 1 0.851736 0.778102 0.578052
69 1 0.398264 0.778103 0.0780521
70 1 0.898264 0.778102 0.078052
71 1 0.101736 0.221898 0.578052
72 1 0.601736 0.221898 0.578052
73 1 0.148265 0.721898 0.0780514
74 1 0.648265 0.721898 0.0780514
75 1 0.351735 0.278102 0.578051
76 1 0.851735 0.278102 0.578051
77 1 0.398265 0.278102 0.0780514
78 1 0.898265 0.278102 0.0780514
79 1 0.101735 0.721898 0.578051
80 1 0.601735 0.721898 0.578051
81 1 0.120284 0.155157 0.118684
82 1 0.620284 0.155157 0.118684
83 1 0.379716 0.844843 0.618684
84 1 0.879716 0.844843 0.618684
85 1 0.370284 0.844843 0.118684
86 1 0.870284 0.844843 0.118684
87 1 0.129716 0.155157 0.618684
88 1 0.629716 0.155157 0.618684
89 1 0.120283 0.655157 0.118684
90 1 0.620283 0.655157 0.118684
91 1 0.379717 0.344843 0.618684
92 1 0.879717 0.344843 0.618684
93 1 0.370283 0.344843 0.118684
94 1 0.870283 0.344843 0.118684
95 1 0.129717 0.655157 0.618684
96 1 0.629717 0.655157 0.618684
97 1 0.115983 0.998712 0.205837
98 1 0.615983 0.998712 0.205837
99 1 0.384017 0.00128805 0.705837
100 1 0.884017 0.00128807 0.705837
101 1 0.365983 0.00128805 0.205837
102 1 0.865983 0.00128806 0.205837
103 1 0.134017 0.998712 0.705837
104 1 0.634017 0.998712 0.705837
105 1 0.115983 0.498712 0.205837
106 1 0.615983 0.498712 0.205837
107 1 0.384017 0.501288 0.705837
108 1 0.884017 0.501288 0.705837
109 1 0.365983 0.501288 0.205837
110 1 0.865983 0.501288 0.205837
111 1 0.134017 0.498712 0.705837
112 1 0.634017 0.498712 0.705837
113 1 0.264109 0.183056 0.844712
114 1 0.764109 0.183056 0.844712
115 1 0.235891 0.816944 0.344712
116 1 0.735891 0.816944 0.344712
117 1 0.0141091 0.816944 0.844712
118 1 0.514109 0.816944 0.844712
119 1 0.485891 0.183056 0.344712
120 1 0.985891 0.183056 0.344712
121 1 0.264109 0.683056 0.844712
122 1 0.764109 0.683056 0.844712
123 1 0.235891 0.316944 0.344712
124 1 0.735891 0.316944 0.344712
125 1 0.0141092 0.316944 0.844712
126 1 0.514109 0.316944 0.844712
127 1 0.485891 0.683056 0.344712
128 1 0.985891 0.683056 0.344712
129 1 0.311042 0.203575 0.847788
130 1 0.811041 0.203575 0.847788
131 1 0.188959 0.796425 0.347788
132 1 0.688959 0.796425 0.347788
133 1 0.0610415 0.796425 0.847788
134 1 0.561041 0.796425 0.847788
135 1 0.438959 0.203575 0.347788
136 1 0.938959 0.203575 0.347788
137 1 0.311042 0.703575 0.847788
138 1 0.811041 0.703575 0.847788
139 1 0.188959 0.296425 0.347788
140 1 0.688959 0.296425 0.347788
141 1 0.0610415 0.296425 0.847788
142 1 0.561041 0.296425 0.847788
143 1 0.438959 0.703575 0.347788
144 1 0.938959 0.703575 0.347788
145 1 0.336605 0.132803 0.889664
146 1 0.836605 0.132803 0.889664
147 1 0.163395 0.867197 0.389664
148 1 0.663395 0.867197 0.389664
149 1 0.0866046 0.867197 0.889664
150 1 0.586605 0.867197 0.889664
151 1 0.413395 0.132803 0.389664
152 1 0.913395 0.132803 0.389664
153 1 0.336605 0.632803 0.889664
154 1 0.836605 0.632803 0.889664
155 1 0.163395 0.367197 0.389664
156 1 0.663395 0.367197 0.389664
157 1 0.0866046 0.367197 0.889664
158 1 0.586605 0.367197 0.889664
159 1 0.413395 0.632803 0.389664
160 1 0.913395 0.632803 0.389664
161 1 0.317177 0.0426424 0.924853
162 1 0.817177 0.0426424 0.924853
163 1 0.182823 0.957358 0.424853
164 1 0.682823 0.957358 0.424853
165 1 0.0671767 0.957358 0.924853
166 1 0.567177 0.957358 0.924853
167 1 0.432823 0.0426424 0.424853
168 1 0.932823 0.0426424 0.424853
169 1 0.317177 0.542642 0.924853
170 1 0.817177 0.542642 0.924853
171 1 0.182823 0.457358 0.424853
172 1 0.682823 0.457358 0.424853
173 1 0.0671767 0.457358 0.924853
174 1 0.567177 0.457358 0.924853
175 1 0.432823 0.542642 0.424853
176 1 0.932823 0.542642 0.424853
177 1 0.270441 0.0236401 0.918901
178 1 0.770441 0.0236401 0.918901
179 1 0.229559 0.97636 0.418901
180 1 0.729559 0.97636 0.418901
181 1 0.0204413 0.97636 0.918901
182 1 0.520441 0.97636 0.918901
183 1 0.479559 0.0236401 0.418901
184 1 0.979559 0.0236401 0.418901
185 1 0.270441 0.52364 0.918901
186 1 0.770441 0.52364 0.918901
187 1 0.229559 0.47636 0.418901
188 1 0.729559 0.47636 0.418901
189 1 0.0204413 0.47636 0.918901
190 1 0.520441 0.47636 0.918901
191 1 0.479559 0.52364 0.418901
192 1 0.979559 0.52364 0.418901
193 1 0.242776 0.0961172 0.88106
194 1 0.742776 0.0961172 0.88106
195 1 0.257224 0.903883 0.38106
196 1 0.757224 0.903883 0.38106
197 1 0.492776 0.903883 0.88106
198 1 0.992776 0.903883 0.88106
199 1 0.00722417 0.0961172 0.38106
200 1 0.507224 0.0961172 0.38106
201 1 0.242776 0.596117 0.88106
202 1 0.742776 0.596117 0.88106
203 1 0.257224 0.403883 0.38106
204 1 0.757224 0.403883 0.38106
205 1 0.492776 0.403883 0.88106
206 1 0.992776 0.403883 0.88106
207 1 0.00722421 0.596117 0.38106
208 1 0.507224 0.596117 0.38106
209 1 0.231864 0.249882 0.79957
210 1 0.731864 0.249882 0.79957
211 1 0.268136 0.750118 0.29957
212 1 0.768136 0.750118 0.29957
213 1 0.481864 0.750118 0.79957
214 1 0.981864 0.750118 0.79957
215 1 0.0181356 0.249882 0.29957
216 1 0.518136 0.249882 0.29957
217 1 0.231864 0.749882 0.79957
218 1 0.731864 0.749882 0.79957
219 1 0.268136 0.250118 0.29957
220 1 0.768136 0.250118 0.29957
221 1 0.481864 0.250118 0.79957
222 1 0.981864 0.250118 0.79957
223 1 0.0181356 0.749882 0.29957
224 1 0.518136 0.749882 0.29957
225 2 0.211443 0.957371 0.193255
226 2 0.711443 0.957371 0.193255
227 2 0.288557 0.0426293 0.693255
228 2 0.788557 0.0426296 0.693255
229 2 0.461443 0.0426292 0.193255
230 2 0.961443 0.0426294 0.193255
231 2 0.0385571 0.957371 0.693255
232 2 0.538557 0.95737 0.693255
233 2 0.211443 0.457368 0.193256
234 2 0.711444 0.457368 0.193256
235 2 0.288556 0.542632 0.693256
236 2 0.788556 0.542632 0.693256
237 2 0.461443 0.542631 0.193256
238 2 0.961444 0.542632 0.193256
239 2 0.0385565 0.457368 0.693256
240 2 0.538556 0.457368 0.693256
241 2 0.223262 0.272343 0.0269053
242 2 0.723262 0.272343 0.0269053
243 2 0.276738 0.727657 0.526905
244 2 0.776738 0.727657 0.526905
245 2 0.473262 0.727657 0.0269053
246 2 0.973262 0.727657 0.0269053
247 2 0.0267381 0.272343 0.526905
248 2 0.526738 0.272343 0.526905
249 2 0.223262 0.772343 0.0269054
250 2 0.723262 0.772342 0.0269055
251 2 0.276738 0.227657 0.526905
252 2 0.776738 0.227658 0.526905
253 2 0.473262 0.227657 0.0269055
254 2 0.973262 0.227658 0.0269055
255 2 0.0267383 0.772342 0.526905
256 2 0.526738 0.772342 0.526905
257 2 0.0703976 0.175452 0.122024
258 2 0.570398 0.175452 0.122024
259 2 0.429602 0.824548 0.622024
260 2 0.929602 0.824548 0.622024
261 2 0.320398 0.824548 0.122024
262 2 0.820398 0.824548 0.122024
263 2 0.179602 0.175452 0.622024
264 2 0.679602 0.175452 0.622024
265 2 0.0703969 0.675453 0.122024
266 2 0.570397 0.675453 0.122024
267 2 0.429603 0.324547 0.622024
268 2 0.929603 0.324547 0.622024
269 2 0.320397 0.324547 0.122024
270 2 0.820397 0.324547 0.122024
271 2 0.179603 0.675453 0.622024
272 2 0.679603 0.675453 0.622024
273 2 0.334829 0.290096 0.806915
274 2 0.834829 0.290096 0.806916
275 2 0.165171 0.709904 0.306916
276 2 0.665171 0.709904 0.306916
277 2 0.0848291 0.709904 0.806916
278 2 0.584829 0.709904 0.806916
279 2 0.415171 0.290096 0.306916
280 2 0.915171 0.290096 0.306916
281 2 0.334829 0.790096 0.806916
282 2 0.834829 0.790096 0.806916
283 2 0.165171 0.209904 0.306916
284 2 0.665171 0.209904 0.306916
285 2 0.0848291 0.209904 0.806916
286 2 0.584829 0.209904 0.806916
287 2 0.415171 0.790096 0.306916
288 2 0.915171 0.790096 0.306916
289 2 0.345487 0.968364 0.968688
290 2 0.845487 0.968364 0.968688
291 2 0.154513 0.0316358 0.468688
292 2 0.654513 0.0316358 0.468688
293 2 0.0954873 0.0316358 0.968688
294 2 0.595487 0.0316358 0.968688
295 2 0.404513 0.968364 0.468688
296 2 0.904513 0.968364 0.468688
297 2 0.345487 0.468364 0.968688
298 2 0.845487 0.468364 0.968688
299 2 0.154513 0.531636 0.468688
300 2 0.654513 0.531636 0.468688
301 2 0.0954873 0.531636 0.968688
302 2 0.595487 0.531636 0.968688
303 2 0.404513 0.468364 0.468688
304 2 0.904513 0.468364 0.468688
305 2 0.192887 0.0777433 0.88001
306 2 0.692887 0.0777433 0.88001
307 2 0.307113 0.922257 0.38001
308 2 0.807113 0.922257 0.38001
309 2 0.442887 0.922257 0.88001
310 2 0.942887 0.922257 0.88001
311 2 0.0571132 0.0777433 0.38001
312 2 0.557113 0.0777433 0.38001
313 2 0.192887 0.577743 0.88001
314 2 0.692887 0.577743 0.88001
315 2 0.307113 0.422257 0.38001
316 2 0.807113 0.422257 0.38001
317 2 0.442887 0.422257 0.88001
318 2 0.942887 0.422257 0.88001
319 2 0.0571132 0.577743 0.38001
320 2 0.557113 0.577743 0.38001
321 3 0.193473 0.861546 0.194684
322 3 0.693473 0.861546 0.194684
323 3 0.306527 0.138454 0.694684
324 3 0.806527 0.138454 0.694684
325 3 0.443473 0.138454 0.194684
326 3 0.943473 0.138454 0.194684
327 3 0.0565273 0.861546 0.694684
328 3 0.556527 0.861546 0.694684
329 3 0.193473 0.361547 0.194684
330 3 0.693473 0.361548 0.194684
331 3 0.306527 0.638453 0.694684
332 3 0.806527 0.638452 0.694684
333 3 0.443473 0.638453 0.194684
334 3 0.943473 0.638452 0.194684
335 3 0.056527 0.361548 0.694684
336 3 0.556527 0.361548 0.694684
337 3 0.247858 0.984013 0.222951
338 3 0.747858 0.984013 0.222951
339 3 0.252142 0.0159868 0.722951
340 3 0.752142 0.0159868 0.722951
341 3 0.497858 0.0159868 0.222951
342 3 0.997858 0.0159868 0.222951
343 3 0.0021424 0.984013 0.722951
344 3 0.502142 0.984013 0.722951
345 3 0.247857 0.484013 0.222951
346 3 0.747857 0.484013 0.222951
347 3 0.252143 0.515987 0.722951
348 3 0.752143 0.515987 0.722951
349 3 0.497857 0.515987 0.222951
350 3 0.997857 0.515987 0.222951
351 3 0.00214301 0.484013 0.722951
352 3 0.502143 0.484013 0.722951
353 3 0.25968 0.230467 0.00492728
354 3 0.75968 0.230467 0.00492727
355 3 0.24032 0.769533 0.504927
356 3 0.74032 0.769533 0.504927
357 3 0.00967955 0.769533 0.00492728
358 3 0.50968 0.769533 0.00492727
359 3 0.49032 0.230467 0.504927
360 3 0.99032 0.230467 0.504927
361 3 0.25968 0.730467 0.00492731
362 3 0.75968 0.730467 0.00492729
363 3 0.24032 0.269533 0.504927
364 3 0.74032 0.269533 0.504927
365 3 0.00967951 0.269533 0.0049273
366 3 0.50968 0.269533 0.00492729
367 3 0.49032 0.730467 0.504927
368 3 0.99032 0.730467 0.504927
369 3 0.20836 0.368257 0.0122866
370 3 0.70836 0.368257 0.0122866
371 3 0.29164 0.631743 0.512287
372 3 0.79164 0.631743 0.512287
373 3 0.45836 0.631743 0.0122866
374 3 0.95836 0.631743 0.0122866
375 3 0.0416405 0.368257 0.512287
376 3 0.54164 0.368257 0.512287
377 3 0.20836 0.868257 0.0122867
378 3 0.70836 0.868257 0.0122867
379 3 0.29164 0.131743 0.512287
380 3 0.79164 0.131743 0.512287
381 3 0.45836 0.131743 0.0122867
382 3 0.95836 0.131743 0.0122867
383 3 0.0416404 0.868257 0.512287
384 3 0.54164 0.868257 0.512287
385 3 0.0576273 0.27344 0.135922
386 3 0.557627 0.27344 0.135922
387 3 0.442373 0.72656 0.635922
388 3 0.942373 0.72656 0.635922
389 3 0.307627 0.72656 0.135922
390 3 0.807627 0.72656 0.135922
391 3 0.192373 0.27344 0.635922
392 3 0.692373 0.27344 0.635922
393 3 0.0576273 0.77344 0.135922
394 3 0.557627 0.77344 0.135922
395 3 0.442373 0.22656 0.635922
396 3 0.942373 0.226561 0.635922
397 3 0.307627 0.22656 0.135922
398 3 0.807627 0.22656 0.135922
399 3 0.192373 0.77344 0.635922
400 3 0.692373 0.773439 0.635922
401 3 0.0447541 0.0930779 0.111176
402 3 0.544754 0.0930779 0.111176
403 3 0.455246 0.906922 0.611176
404 3 0.955246 0.906922 0.611176
405 3 0.294754 0.906922 0.111176
406 3 0.794754 0.906922 0.111176
407 3 0.205246 0.0930779 0.611176
408 3 0.705246 0.093078 0.611176
409 3 0.0447542 0.593078 0.111176
410 3 0.544754 0.593078 0.111176
411 3 0.455246 0.406922 0.611176
412 3 0.955246 0.406922 0.611176
413 3 0.294754 0.406922 0.111176
414 3 0.794754 0.406922 0.111176
415 3 0.205246 0.593078 0.611176
416 3 0.705246 0.593079 0.611176
417 3 0.316986 0.385835 0.804063
418 3 0.816986 0.385835 0.804063
419 3 0.183014 0.614165 0.304063
420 3 0.683014 0.614165 0.304063
421 3 0.0669856 0.614165 0.804063
422 3 0.566986 0.614165 0.804063
423 3 0.433014 0.385835 0.304063
424 3 0.933014 0.385835 0.304063
425 3 0.316986 0.885835 0.804063
426 3 0.816986 0.885835 0.804063
427 3 0.183014 0.114165 0.304063
428 3 0.683014 0.114165 0.304063
429 3 0.0669856 0.114165 0.804063
430 3 0.566986 0.114165 0.804063
431 3 0.433014 0.885835 0.304063
432 3 0.933014 0.885835 0.304063
433 3 0.372117 0.262655 0.780109
434 3 0.872117 0.262655 0.780109
435 3 0.127883 0.737345 0.280109
436 3 0.627883 0.737345 0.280109
437 3 0.122117 0.737345 0.780109
438 3 0.622117 0.737345 0.780109
439 3 0.377883 0.262655 0.280109
440 3 0.877883 0.262655 0.280109
441 3 0.372117 0.762655 0.780109
442 3 0.872117 0.762655 0.780109
443 3 0.127883 0.237345 0.280109
444 3 0.627883 0.237345 0.280109
445 3 0.122117 0.237345 0.780109
446 3 0.622117 0.237345 0.780109
447 3 0.377883 0.762655 0.280109
448 3 0.877883 0.762655 0.280109
449 3 0.378661 0.0127782 0.998567
450 3 0.878661 0.0127781 0.998567
451 3 0.121339 0.987222 0.498567
452 3 0.621339 0.987222 0.498567
453 3 0.128661 0.987222 0.998567
454 3 0.628661 0.987222 0.998567
455 3 0.371339 0.0127781 0.498567
456 3 0.871339 0.0127781 0.498567
457 3 0.378661 0.512778 0.998567
458 3 0.878661 0.512778 0.998567
459 3 0.121339 0.487222 0.498567
460 3 0.621339 0.487222 0.498567
461 3 0.128661 0.487222 0.998567
462 3 0.628661 0.487222 0.998567
463 3 0.371339 0.512778 0.498567
464 3 0.871339 0.512778 0.498567
465 3 0.333648 0.86746 0.973425
466 3 0.833648 0.86746 0.973425
467 3 0.166352 0.13254 0.473425
468 3 0.666352 0.13254 0.473425
469 3 0.0836476 0.13254 0.973425
470 3 0.583648 0.13254 0.973425
471 3 0.416352 0.86746 0.473425
472 3 0.916352 0.86746 0.473425
473 3 0.333648 0.36746 0.973425
474 3 0.833648 0.36746 0.973425
475 3 0.166352 0.63254 0.473425
476 3 0.666352 0.63254 0.473425
477 3 0.0836476 0.63254 0.973425
478 3 0.583648 0.63254 0.973425
479 3 0.416352 0.36746 0.473425
480 3 0.916352 0.36746 0.473425
481 3 0.179264 0.984149 0.858761
482 3 0.679264 0.98415 0.858761
483 3 0.320736 0.0158503 0.358761
484 3 0.820736 0.0158501 0.358761
485 3 0.429264 0.0158501 0.858761
486 3 0.929264 0.0158504 0.858761
487 3 0.0707357 0.98415 0.358761
488 3 0.570736 0.98415 0.358761
489 3 0.179264 0.484149 0.858761
490 3 0.679264 0.48415 0.858761
491 3 0.320736 0.51585 0.358761
492 3 0.820736 0.51585 0.358761
493 3 0.429264 0.51585 0.858761
494 3 0.929264 0.51585 0.858761
495 3 0.0707357 0.48415 0.358761
496 3 0.570736 0.48415 0.358761
497 3 0.168335 0.157002 0.900803
498 3 0.668336 0.157002 0.900803
499 3 0.331665 0.842998 0.400803
500 3 0.831664 0.842998 0.400803
501 3 0.418336 0.842998 0.900803
502 3 0.918335 0.842998 0.900803
503 3 0.0816645 0.157002 0.400803
504 3 0.581665 0.157002 0.400803
505 3 0.168335 0.657002 0.900803
506 3 0.668336 0.657002 0.900803
507 3 0.331665 0.342998 0.400803
508 3 0.831664 0.342998 0.400803
509 3 0.418336 0.342998 0.900803
510 3 0.918335 0.342998 0.900803
511 3 0.0816645 0.657002 0.400803
512 3 0.581665 0.657002 0.400803
513 4 0.13723 0.969357 0.24902
514 4 0.63723 0.969357 0.24902
515 4 0.36277 0.030643 0.74902
516 4 0.86277 0.030643 0.74902
517 4 0.38723 0.030643 0.24902
518 4 0.88723 0.030643 0.24902
519 4 0.11277 0.969357 0.74902
520 4 0.61277 0.969357 0.74902
521 4 0.13723 0.469357 0.24902
522 4 0.63723 0.469357 0.24902
523 4 0.36277 0.530643 0.74902
524 4 0.86277 0.530643 0.749019
525 4 0.38723 0.530643 0.24902
526 4 0.88723 0.530643 0.24902
527 4 0.11277 0.469357 0.74902
528 4 0.61277 0.469357 0.749019
529 4 0.102248 0.921027 0.18196
530 4 0.602248 0.921027 0.18196
531 4 0.397752 0.0789732 0.68196
532 4 0.897752 0.0789732 0.68196
533 4 0.352248 0.0789733 0.18196
534 4 0.852248 0.0789732 0.18196
535 4 0.147752 0.921027 0.68196
536 4 0.647752 0.921027 0.68196
537 4 0.102248 0.421027 0.18196
538 4 0.602248 0.421027 0.18196
539 4 0.397752 0.578973 0.68196
540 4 0.897752 0.578973 0.68196
541 4 0.352248 0.578973 0.18196
542 4 0.852248 0.578973 0.18196
543 4 0.147752 0.421027 0.68196
544 4 0.647752 0.421027 0.68196
545 4 0.0872554 0.0449058 0.229662
546 4 0.587255 0.0449058 0.229662
547 4 0.412745 0.955094 0.729662
548 4 0.912745 0.955094 0.729662
549 4 0.337255 0.955094 0.229662
550 4 0.837255 0.955094 0.229662
551 4 0.162745 0.0449058 0.729662
552 4 0.662745 0.0449058 0.729662
553 4 0.0872555 0.544906 0.229662
554 4 0.587256 0.544906 0.229662
555 4 0.412744 0.455094 0.729662
556 4 0.912744 0.455094 0.729662
557 4 0.337255 0.455094 0.229662
558 4 0.837256 0.455094 0.229662
559 4 0.162744 0.544906 0.729662
560 4 0.662744 0.544906 0.729662
561 4 0.252213 0.100003 0.10692
562 4 0.752213 0.100003 0.10692
563 4 0.247787 0.899997 0.60692
564 4 0.747787 0.899997 0.60692
565 4 0.502213 0.899997 0.10692
566 4 0.00221299 0.899997 0.10692
567 4 0.997787 0.100003 0.60692
568 4 0.497787 0.100003 0.60692
569 4 0.252213 0.600003 0.10692
570 4 0.752213 0.600003 0.10692
571 4 0.247787 0.399997 0.60692
572 4 0.747787 0.399997 0.60692
573 4 0.502213 0.399997 0.10692
574 4 0.00221278 0.399997 0.10692
575 4 0.997787 0.600003 0.60692
576 4 0.497787 0.600003 0.60692
577 4 0.132998 0.291402 0.0483049
578 4 0.632998 0.291402 0.048305
579 4 0.367002 0.708598 0.548305
580 4 0.867002 0.708598 0.548305
581 4 0.382998 0.708598 0.0483049
582 4 0.882998 0.708598 0.0483049
583 4 0.117002 0.291402 0.548305
584 4 0.617002 0.291402 0.548305
585 4 0.132998 0.791401 0.048305
586 4 0.632998 0.791401 0.048305
587 4 0.367002 0.208599 0.548305
588 4 0.867002 0.208599 0.548305
589 4 0.382998 0.208599 0.048305
590 4 0.882998 0.208599 0.048305
591 4 0.117002 0.791401 0.548305
592 4 0.617002 0.791401 0.548305
593 4 0.248385 0.284379 0.753114
594 4 0.748385 0.284379 0.753114
595 4 0.251615 0.715621 0.253114
596 4 0.751615 0.715621 0.253114
597 4 0.498385 0.715621 0.753114
598 4 0.998385 0.715621 0.753114
599 4 0.00161493 0.284379 0.253114
600 4 0.501615 0.284379 0.253114
601 4 0.248385 0.784379 0.753114
602 4 0.748385 0.784379 0.753114
603 4 0.251615 0.215621 0.253114
604 4 0.751615 0.215621 0.253114
605 4 0.498385 0.215621 0.753114
606 4 0.998385 0.215621 0.753114
607 4 0.00161493 0.784379 0.253114
608 4 0.501615 0.784379 0.253114
609 4 0.202901 0.198511 0.780825
610 4 0.702901 0.198511 0.780825
611 4 0.297099 0.801489 0.280825
612 4 0.797099 0.801489 0.280825
613 4 0.452901 0.801489 0.780825
614 4 0.952901 0.801489 0.780825
615 4 0.0470993 0.198511 0.280825
616 4 0.547099 0.198511 0.280825
617 4 0.202901 0.698511 0.780825
618 4 0.702901 0.698511 0.780825
619 4 0.297099 0.301489 0.280825
620 4 0.797099 0.301489 0.280825
621 4 0.452901 0.301489 0.780825
622 4 0.952901 0.301489 0.780825
623 4 0.0470993 0.698511 0.280825
624 4 0.547099 0.698511 0.280825
625 4 0.215576 0.321633 0.826454
626 4 0.715576 0.321633 0.826454
627 4 0.284424 0.678367 0.326454
628 4 0.784424 0.678367 0.326454
629 4 0.465576 0.678367 0.826454
630 4 0.965576 0.678367 0.826454
631 4 0.0344238 0.321633 0.326454
632 4 0.534424 0.321633 0.326454
633 4 0.215576 0.821633 0.826454
634 4 0.715576 0.821633 0.826454
635 4 0.284424 0.178367 0.326454
636 4 0.784424 0.178367 0.326454
637 4 0.465576 0.178367 0.826454
638 4 0.965576 0.178367 0.826454
639 4 0.0344238 0.821633 0.326454
640 4 0.534424 0.821633 0.326454
641 4 0.373832 0.146567 0.893937
642 4 0.873832 0.146567 0.893937
643 4 0.126168 0.853433 0.393937
644 4 0.626168 0.853433 0.393937
645 4 0.123832 0.853433 0.893937
646 4 0.623832 0.853433 0.893937
647 4 0.376168 0.146567 0.393937
648 4 0.876168 0.146567 0.393937
649 4 0.373832 0.646567 0.893937
650 4 0.873832 0.646567 0.893937
651 4 0.126168 0.353433 0.393937
652 4 0.626168 0.353433 0.393937
653 4 0.123832 0.353433 0.893937
654 4 0.623832 0.353433 0.893937
655 4 0.376168 0.646567 0.393937
656 4 0.876168 0.646567 0.393937
657 4 0.254434 0.951954 0.946028
658 4 0.754434 0.951954 0.946028
659 4 0.245566 0.0480456 0.446028
660 4 0.745566 0.0480456 0.446028
661 4 0.00443354 0.0480456 0.946028
662 4 0.504434 0.0480456 0.946028
663 4 0.495566 0.951954 0.446028
664 4 0.995566 0.951954 0.446028
665 4 0.254434 0.451954 0.946028
666 4 0.754434 0.451954 0.946027
667 4 0.245566 0.548046 0.446028
668 4 0.745566 0.548046 0.446027
669 4 0.00443354 0.548046 0.946028
670 4 0.504434 0.548046 0.946027
671 4 0.495566 0.451954 0.446028
672 4 0.995566 0.451954 0.446028
ITEM: TIMESTEP
1000
ITEM: NUMBER OF ATOMS
672
ITEM: BOX BOUNDS xy xz yz pp pp pp
1.6389054872197831e-01 2.9826633015183052e+01 1.0378344467126041e-01
3.5834371495645623e-01 1.1688073033168875e+01 -9.5260231766280595e-02
-3.0504412807410652e-01 2.0322044326474032e+01 -1.0758353417466729e-01
ITEM: ATOMS id type xs ys zs
1 1 0.134249 0.0905977 0.159722
2 1 0.65635 0.0567492 0.15282
3 1 0.346928 0.929376 0.665897
4 1 0.855956 0.91855 0.661194
5 1 0.412202 0.93025 0.149335
6 1 0.887876 0.927926 0.157205
7 1 0.116275 0.0809653 0.664152
8 1 0.600366 0.0652135 0.651105
9 1 0.140498 0.577446 0.167765
10 1 0.641468 0.556463 0.155467
11 1 0.342308 0.429264 0.664474
12 1 0.859842 0.41608 0.659811
13 1 0.398902 0.41051 0.149122
14 1 0.891167 0.451823 0.159371
15 1 0.104896 0.590258 0.651796
16 1 0.606416 0.554397 0.660098
17 1 0.179819 0.0434976 0.15176
18 1 0.70398 0.0421849 0.157393
19 1 0.300059 0.95792 0.656446
20 1 0.807465 0.940513 0.652377
21 1 0.460588 0.943811 0.146948
22 1 0.935284 0.94596 0.147389
23 1 0.0716055 0.0347159 0.653718
24 1 0.551851 0.0498112 0.646053
25 1 0.18748 0.558609 0.155915
26 1 0.689605 0.530338 0.148177
27 1 0.296354 0.464511 0.649762
28 1 0.812048 0.436766 0.649497
29 1 0.446915 0.42437 0.148767
30 1 0.93925 0.466788 0.161032
31 1 0.057524 0.567202 0.648775
32 1 0.560133 0.527385 0.648327
33 1 0.207764 0.102428 0.106178
34 1 0.726978 0.10662 0.111233
35 1 0.277478 0.901572 0.603966
36 1 0.785418 0.878221 0.599522
37 1 0.483843 0.868751 0.102651
38 1 0.959902 0.880038 0.0987784
39 1 0.042495 0.0971542 0.61033
40 1 0.52856 0.11513 0.597583
41 1 0.211871 0.637036 0.116046
42 1 0.710303 0.589617 0.0966411
43 1 0.27396 0.405574 0.596627
44 1 0.787279 0.366288 0.603765
45 1 0.470201 0.360259 0.100438
46 1 0.965441 0.39466 0.118269
47 1 0.0303215 0.627414 0.602091
48 1 0.537312 0.598291 0.598944
49 1 0.193011 0.202429 0.0686063
50 1 0.705939 0.189271 0.067556
51 1 0.299065 0.817616 0.564913
52 1 0.806712 0.79084 0.56045
53 1 0.458873 0.792961 0.0594756
54 1 0.939153 0.781756 0.0668456
55 1 0.0572969 0.204231 0.578752
56 1 0.551361 0.20236 0.558184
57 1 0.187406 0.731415 0.0827274
58 1 0.689526 0.68062 0.0602496
59 1 0.299124 0.324904 0.555847
60 1 0.808699 0.26654 0.574059
61 1 0.448998 0.275645 0.0574047
62 1 0.945285 0.314605 0.0724462
63 1 0.0501897 0.714273 0.561219
64 1 0.559196 0.694607 0.566562
65 1 0.148659 0.245271 0.0810288
66 1 0.658358 0.211179 0.0716826
67 1 0.343303 0.774088 0.584599
68 1 0.85224 0.762687 0.579849
69 1 0.414291 0.751765 0.0782149
70 1 0.892213 0.760144 0.0816059
71 1 0.102678 0.23944 0.585469
72 1 0.598714 0.220414 0.569765
73 1 0.140111 0.740328 0.0906457
74 1 0.641953 0.705038 0.0705799
75 1 0.346479 0.306086 0.569487
76 1 0.855787 0.242659 0.588253
77 1 0.402749 0.266681 0.0653069
78 1 0.899004 0.284177 0.0853595
79 1 0.0980462 0.73886 0.564851
80 1 0.60474 0.720819 0.581751
81 1 0.117852 0.193184 0.12576
82 1 0.633308 0.146728 0.118069
83 1 0.369082 0.8288 0.634408
84 1 0.879135 0.833061 0.621988
85 1 0.389675 0.824763 0.121546
86 1 0.86435 0.841667 0.118475
87 1 0.133373 0.180356 0.629034
88 1 0.624252 0.154951 0.616898
89 1 0.114245 0.665158 0.134162
90 1 0.616791 0.643029 0.119392
91 1 0.369511 0.353481 0.624247
92 1 0.882517 0.319506 0.627802
93 1 0.373079 0.327009 0.111307
94 1 0.869684 0.35263 0.126106
95 1 0.126314 0.672881 0.609304
96 1 0.629848 0.644833 0.624111
97 1 0.0987675 0.0158776 0.197844
98 1 0.626038 0.97048 0.193519
99 1 0.372644 0.0179154 0.709975
100 1 0.886018 0.000762146 0.703722
101 1 0.38569 0.0136273 0.196145
102 1 0.860359 0.0113001 0.204344
103 1 0.147739 0.0233454 0.716651
104 1 0.63089 0.973528 0.688248
105 1 0.11664 0.49731 0.219536
106 1 0.616512 0.493582 0.213429
107 1 0.369304 0.500752 0.714413
108 1 0.887757 0.493733 0.708149
109 1 0.372084 0.48866 0.199747
110 1 0.859561 0.529987 0.201481
111 1 0.135911 0.529426 0.704102
112 1 0.637289 0.494749 0.710291
113 1 0.276267 0.180138 0.846438
114 1 0.778469 0.175573 0.849803
115 1 0.224851 0.843987 0.340891
116 1 0.715646 0.8161 0.34541
117 1 0.026864 0.83085 0.844866
118 1 0.520805 0.806534 0.840947
119 1 0.481717 0.170988 0.351416
120 1 0.961588 0.198159 0.338418
121 1 0.274605 0.690906 0.855996
122 1 0.777438 0.673645 0.827577
123 1 0.222191 0.320611 0.339531
124 1 0.719687 0.31248 0.350221
125 1 0.0343032 0.352586 0.825474
126 1 0.52917 0.306976 0.833425
127 1 0.480938 0.700879 0.341493
128 1 0.972308 0.66568 0.34896
129 1 0.321792 0.212656 0.855933
130 1 0.826316 0.194431 0.85014
131 1 0.176913 0.823581 0.34742
132 1 0.667794 0.803236 0.353207
133 1 0.0744835 0.807545 0.854965
134 1 0.569222 0.779108 0.839335
135 1 0.433747 0.196975 0.35583
136 1 0.912929 0.193948 0.342336
137 1 0.321583 0.71933 0.863038
138 1 0.825006 0.686985 0.836817
139 1 0.174545 0.288747 0.343595
140 1 0.672085 0.293008 0.350861
141 1 0.0796665 0.325296 0.840363
142 1 0.576225 0.27021 0.843239
143 1 0.432215 0.703973 0.339499
144 1 0.925269 0.694034 0.354156
145 1 0.346604 0.131778 0.898642
146 1 0.851537 0.118156 0.893149
147 1 0.153492 0.886569 0.396292
148 1 0.649376 0.872583 0.403813
149 1 0.0967941 0.86399 0.90948
150 1 0.598395 0.847786 0.880874
151 1 0.408852 0.136466 0.405644
152 1 0.890758 0.114247 0.385201
153 1 0.34635 0.649475 0.908332
154 1 0.851286 0.622698 0.882729
155 1 0.151162 0.365672 0.390288
156 1 0.644837 0.365098 0.393258
157 1 0.100547 0.3989 0.887976
158 1 0.599417 0.333088 0.894118
159 1 0.405381 0.635673 0.381796
160 1 0.899415 0.617603 0.395027
161 1 0.327021 0.0398766 0.936909
162 1 0.830805 0.0215999 0.925599
163 1 0.177427 0.98001 0.43097
164 1 0.675221 0.964868 0.435339
165 1 0.0733839 0.958901 0.941606
166 1 0.578276 0.93945 0.920201
167 1 0.43139 0.0574014 0.448349
168 1 0.919189 0.0489018 0.430452
169 1 0.328468 0.549613 0.942603
170 1 0.829652 0.532512 0.91921
171 1 0.172218 0.458778 0.424401
172 1 0.665752 0.456515 0.430313
173 1 0.0766234 0.490317 0.920859
174 1 0.577947 0.409102 0.939382
175 1 0.427193 0.551767 0.425122
176 1 0.919232 0.516716 0.427464
177 1 0.280785 0.0150804 0.92003
178 1 0.783182 0.998594 0.913591
179 1 0.223677 0.0101391 0.414227
180 1 0.720341 0.98913 0.418281
181 1 0.0281633 0.995219 0.919928
182 1 0.533659 0.983305 0.903679
183 1 0.478699 0.0304829 0.439983
184 1 0.966766 0.0516003 0.41999
185 1 0.27956 0.545938 0.940244
186 1 0.781404 0.526037 0.91139
187 1 0.216475 0.493974 0.404306
188 1 0.713303 0.477895 0.419154
189 1 0.0304678 0.513827 0.901299
190 1 0.530497 0.435761 0.931249
191 1 0.474666 0.537015 0.415204
192 1 0.966249 0.494619 0.415377
193 1 0.25177 0.0908333 0.881826
194 1 0.75519 0.0801128 0.879254
195 1 0.248768 0.941026 0.369314
196 1 0.743106 0.905794 0.375793
197 1 0.502547 0.912841 0.868884
198 1 0.00312458 0.926798 0.875463
199 1 0.990657 0.125194 0.376289
200 1 0.50528 0.0897999 0.392822
201 1 0.251697 0.604185 0.893205
202 1 0.754104 0.584668 0.864675
203 1 0.244127 0.422337 0.362067
204 1 0.743883 0.403787 0.3843
205 1 0.505791 0.382495 0.878723
206 1 0.00538122 0.432612 0.863132
207 1 0.99656 0.570735 0.382227
208 1 0.503159 0.612343 0.378467
209 1 0.247269 0.255353 0.800399
210 1 0.748432 0.267811 0.812291
211 1 0.25201 0.762047 0.29375
212 1 0.74308 0.725154 0.305157
213 1 0.486445 0.736547 0.799572
214 1 1.38868e-05 0.766203 0.789698
215 1 0.981729 0.292833 0.291015
216 1 0.513046 0.225492 0.299225
217 1 0.248167 0.766386 0.804099
218 1 0.749954 0.745665 0.776962
219 1 0.250756 0.233056 0.296078
220 1 0.747008 0.221048 0.308927
221 1 0.49896 0.252908 0.778783
222 1 0.0140977 0.264047 0.775106
223 1 0.00521588 0.743975 0.309707
224 1 0.507648 0.773233 0.289583