LAMMPS data file via write_data, version 15 Apr 2020, timestep = 80000

672 atoms
4 atom types

3.2653318745462023e-01 2.9655467163545506e+01 xlo xhi
4.2378854900055707e-01 1.1730211733299342e+01 ylo yhi
3.5278742917935091e-02 1.9981721455481338e+01 zlo zhi
-5.0299133630799658e-02 1.5590372008535466e-01 2.7371783812209251e-02 xy xz yz

Masses

1 12.0107
2 14.0067
3 15.9994
4 1.00794

Atoms # full

1 1 1 6.1172841163000091e-02 4.5480229100019844e+00 1.3897861553181829e+00 3.2338578975490080e+00 0 0 0
2 1 1 7.4981044988890883e-02 1.9231177000101269e+01 1.4528050429111545e+00 3.3139093889987445e+00 0 0 0
3 1 1 7.7403689139555212e-02 1.0953700295242685e+01 1.0888022342381248e+01 1.3234574382740135e+01 0 0 0
4 1 1 7.5688023091595669e-02 2.5516318159066778e+01 1.1022251207988297e+01 1.3321333079479745e+01 0 0 0
5 1 1 6.3415284484199502e-02 1.2014638171954601e+01 1.0740136698466872e+01 3.3208170711554259e+00 0 0 0
6 1 1 7.5511477867826637e-02 2.6438187111043280e+01 1.1064755061096102e+01 3.1902835192967349e+00 0 0 0
7 1 1 7.6631361212945143e-02 3.5317837450186280e+00 1.5471376807693267e+00 1.3309532174558994e+01 0 0 0
8 1 1 8.3201657676818502e-02 1.8272306866510991e+01 1.4104449869591034e+00 1.3154026325099823e+01 0 0 0
9 1 1 7.4997336976379253e-02 4.5779130451110168e+00 7.0592368712981344e+00 3.1285912555530406e+00 0 0 0
10 1 1 8.3860685195778606e-02 1.9163931450713431e+01 6.9926371987652258e+00 3.2946582058391680e+00 0 0 0
11 1 1 7.1276308696274021e-02 1.1168734873672458e+01 5.3583534966437645e+00 1.3124140381299203e+01 0 0 0
12 1 1 7.2764936822822895e-02 2.5549434893988963e+01 5.2410748669244231e+00 1.3221091997502043e+01 0 0 0
13 1 1 4.6227431274241754e-02 1.2020263619201971e+01 5.2346504447502289e+00 3.2009984832018459e+00 0 0 0
14 1 1 8.4106923737427675e-02 2.6500744682097110e+01 5.3148790827914718e+00 2.9077586485011704e+00 0 0 0
15 1 1 5.6827577090559578e-02 3.4962783719046504e+00 6.7892867648222985e+00 1.3348689035822314e+01 0 0 0
16 1 1 7.5068840211667320e-02 1.8237838118933119e+01 6.7931218874629353e+00 1.3294597365568325e+01 0 0 0
17 1 1 6.4504093089319300e-02 5.9472991976885305e+00 1.2138067170618605e+00 3.1559994737926047e+00 0 0 0
18 1 1 6.2619873846364332e-02 2.0644949821087064e+01 1.2281367060231081e+00 3.1972663932163998e+00 0 0 0
19 1 1 7.6467618316142155e-02 9.5619773177237004e+00 1.1166285625845749e+01 1.3165039816275391e+01 0 0 0
20 1 1 6.2927382430630188e-02 2.4154938160356455e+01 1.1348388148905901e+01 1.3109612278459192e+01 0 0 0
21 1 1 5.8829197993364418e-02 1.3367946887786427e+01 1.1099111630123970e+01 3.0982090420604407e+00 0 0 0
22 1 1 8.0367473981377377e-02 2.7736527996791946e+01 1.1586321501001242e+01 2.9212176173626685e+00 0 0 0
23 1 1 7.1094423966318335e-02 2.1352314254019102e+00 1.2833042032926500e+00 1.3356452961769046e+01 0 0 0
24 1 1 6.5100176730452528e-02 1.6933875785103861e+01 9.8123905762292285e-01 1.2970459063852980e+01 0 0 0
25 1 1 6.7000824213827720e-02 5.9707827712722388e+00 6.7187628454864132e+00 3.0278849693401688e+00 0 0 0
26 1 1 6.6345785563322573e-02 2.0535729713365992e+01 6.5772166379919419e+00 3.2227711820436382e+00 0 0 0
27 1 1 6.4178328325416700e-02 9.7964103946854664e+00 5.7728209675226401e+00 1.3036227884622701e+01 0 0 0
28 1 1 6.5499759798343382e-02 2.4205665208194208e+01 5.6137925897347207e+00 1.3068761409367013e+01 0 0 0
29 1 1 5.4201457417384961e-02 1.3405593991720718e+01 5.5037853872444558e+00 3.1990020940691837e+00 0 0 0
30 1 1 7.1176855081046819e-02 2.7897933960612402e+01 5.6530750971509400e+00 2.7876892504642092e+00 0 0 0
31 1 1 4.9072873347558395e-02 2.1636053516423752e+00 6.3792096432305812e+00 1.3039861136060816e+01 0 0 0
32 1 1 5.3231635144578071e-02 1.6936189830278256e+01 6.3063728349096984e+00 1.3097433590750397e+01 0 0 0
33 1 1 -3.7206546117500683e-02 6.6137696640546162e+00 2.0029667021118556e+00 2.1934647510952043e+00 0 0 0
34 1 1 -4.7219421865659514e-02 2.1410263179728823e+01 1.8729369896611912e+00 2.2021180277183925e+00 0 0 0
35 1 1 -5.7009133065613421e-02 8.8434848399016275e+00 1.0364515808807656e+01 1.2200093124903074e+01 0 0 0
36 1 1 -4.6884902856741684e-02 2.3544867099946227e+01 1.0515191925602045e+01 1.2132220204672075e+01 0 0 0
37 1 1 -3.8917011696180046e-02 1.4087537540298802e+01 1.0352535900531018e+01 2.0399710090943555e+00 0 0 0
38 1 1 -5.3994868359463780e-02 2.8484728807117925e+01 1.1032488862219655e+01 1.7968562894327766e+00 0 0 0
39 1 1 -4.6715857961738320e-02 1.3475279966503559e+00 1.9988822277883409e+00 1.2381817179779532e+01 0 0 0
40 1 1 -4.5187627736967592e-02 1.6057533038388808e+01 1.6937324187294316e+00 1.2095182826220519e+01 0 0 0
41 1 1 -5.9025405207610578e-02 6.6496625081316809e+00 7.5207713023274190e+00 2.0735721853158835e+00 0 0 0
42 1 1 -5.2960598050099110e-02 2.1374183431155576e+01 7.3267624201577437e+00 2.3647670110516277e+00 0 0 0
43 1 1 -4.0749421956854007e-02 9.1000121032738246e+00 5.0828459006760012e+00 1.1988950091730270e+01 0 0 0
44 1 1 -3.7261824464488183e-02 2.3493561951666329e+01 4.7840293153442843e+00 1.2172106960529543e+01 0 0 0
45 1 1 -5.4391077933373895e-02 1.4119243710706201e+01 4.7513378950374721e+00 2.1850002620792535e+00 0 0 0
46 1 1 -4.2715048322887209e-02 2.8649645824325074e+01 4.8495479452230716e+00 1.8667078881263166e+00 0 0 0
47 1 1 -5.3063911202904199e-02 1.4796962257455477e+00 7.0632937034685401e+00 1.2005242117798545e+01 0 0 0
48 1 1 -4.6542113182975631e-02 1.6211055744762952e+01 7.0038993421461013e+00 1.2091480413767574e+01 0 0 0
49 1 1 1.0604556982617031e-01 5.8779204578782700e+00 2.7900298528759677e+00 1.2234954708030588e+00 0 0 0
50 1 1 1.0309020619754630e-01 2.0687926308210038e+01 2.7635507575364766e+00 1.3234068274968358e+00 0 0 0
51 1 1 9.8400593415154475e-02 9.4368914697609423e+00 9.3523470820758998e+00 1.1438464052555219e+01 0 0 0
52 1 1 1.0685146940475720e-01 2.4210804966942678e+01 9.5011086678602616e+00 1.1409541055852753e+01 0 0 0
53 1 1 1.0511603248496304e-01 1.3545526865148416e+01 9.1892062411858646e+00 1.4761946303937616e+00 0 0 0
54 1 1 1.0216913983086470e-01 2.8126424870901229e+01 9.7305078094557196e+00 1.3840192664821140e+00 0 0 0
55 1 1 9.4832500339261674e-02 1.9669203420417578e+00 2.9113287266222931e+00 1.1410789016025944e+01 0 0 0
56 1 1 1.0901939782236356e-01 1.6640228056476790e+01 2.7271386988921367e+00 1.1296226603466707e+01 0 0 0
57 1 1 9.9279162351722947e-02 6.0982487877529543e+00 8.7312087563759384e+00 1.5572051275022687e+00 0 0 0
58 1 1 1.0502161236286345e-01 2.0856831497884635e+01 8.4760577334278082e+00 1.7287908468371500e+00 0 0 0
59 1 1 1.1497804519806615e-01 9.5599974893079320e+00 3.9143546208599793e+00 1.1332970375424434e+01 0 0 0
60 1 1 1.0804029764777809e-01 2.4089630641260772e+01 3.7122552731973806e+00 1.1434221665160614e+01 0 0 0
61 1 1 1.0230676210207654e-01 1.3569464430246288e+01 3.7512672224522965e+00 1.3710539299302407e+00 0 0 0
62 1 1 9.8348002843243118e-02 2.8125220163922954e+01 3.7894062466544862e+00 1.0883823333950648e+00 0 0 0
63 1 1 9.9342991625872817e-02 2.0166368925974041e+00 8.2487832891453117e+00 1.1457628158487445e+01 0 0 0
64 1 1 1.0516070898171768e-01 1.6633177234015101e+01 8.2188165849218606e+00 1.1492109751596788e+01 0 0 0
65 1 1 -3.6622583880270523e-02 4.5045151536554746e+00 3.0188383647512489e+00 1.3589209374968700e+00 0 0 0
66 1 1 -2.0808448305443882e-02 1.9310579817028319e+01 3.0691966429524915e+00 1.4571420689723156e+00 0 0 0
67 1 1 -3.8542068164672427e-02 1.0788951786189218e+01 8.8983259285981458e+00 1.1764319290856184e+01 0 0 0
68 1 1 -4.4588485328539464e-02 2.5583229078221208e+01 9.1915486462911193e+00 1.1680555728492303e+01 0 0 0
69 1 1 -5.2617080579568820e-02 1.2173484074613953e+01 8.8581845293680992e+00 1.8127573617349899e+00 0 0 0
70 1 1 -1.7780850366352637e-02 2.6802317569968867e+01 9.2764878493647878e+00 1.6624833089951159e+00 0 0 0
71 1 1 -6.0410766005520700e-02 3.3138763936274640e+00 3.2597591756649273e+00 1.1582333513371177e+01 0 0 0
72 1 1 -3.4567378300489782e-02 1.7963376040147612e+01 3.1860903955538609e+00 1.1570800474414851e+01 0 0 0
73 1 1 -4.1612915833757272e-02 4.7296535156886286e+00 9.0320236656347159e+00 1.7603408714066402e+00 0 0 0
74 1 1 -5.1528370511499957e-02 1.9459870322631595e+01 8.8120216208045541e+00 1.8336458161063567e+00 0 0 0
75 1 1 -3.5437339854918100e-02 1.0833030215005985e+01 3.4097854774638918e+00 1.1689416656827202e+01 0 0 0
76 1 1 -3.6834567928858128e-02 2.5463896871503714e+01 3.3928774614218606e+00 1.1675486816788935e+01 0 0 0
77 1 1 -4.5719952697087965e-02 1.2202427947083580e+01 3.4082281522193587e+00 1.6454423828136335e+00 0 0 0
78 1 1 -3.5044212067807737e-02 2.6750089434936793e+01 3.4755020037226441e+00 1.2485368381981190e+00 0 0 0
79 1 1 -4.3504779537781951e-02 3.3304159465824323e+00 8.6790040360691059e+00 1.1857870643076456e+01 0 0 0
80 1 1 -2.6766113623703805e-02 1.7965550447230349e+01 8.6137983565148630e+00 1.1744854952330920e+01 0 0 0
81 1 1 6.4831459860717422e-02 3.8390710856516521e+00 2.3845996033038421e+00 2.4698769077590357e+00 0 0 0
82 1 1 8.1853587345212087e-02 1.8561248677970106e+01 2.3197860798335679e+00 2.4201798213189574e+00 0 0 0
83 1 1 9.1943536141636667e-02 1.1582132512983016e+01 9.7458937221119335e+00 1.2555488942462716e+01 0 0 0
84 1 1 8.5294648990713220e-02 2.6281970356962905e+01 1.0073008781702974e+01 1.2565670974661629e+01 0 0 0
85 1 1 7.3256245583656898e-02 1.1349781043397524e+01 9.6733362736063526e+00 2.6463387602714175e+00 0 0 0
86 1 1 8.4825073917145971e-02 2.5919469917713098e+01 9.8933039969164707e+00 2.6008730819107155e+00 0 0 0
87 1 1 6.9288815486334254e-02 4.2038884807092698e+00 2.5507403231650154e+00 1.2470641187346400e+01 0 0 0
88 1 1 7.1184757083266534e-02 1.8852066015494280e+01 2.5266425643751202e+00 1.2448269103654605e+01 0 0 0
89 1 1 7.3669555779997217e-02 3.9092639547412009e+00 8.1431835998374531e+00 2.5093182038905115e+00 0 0 0
90 1 1 9.1145264649067401e-02 1.8504804905875350e+01 7.9924499889100042e+00 2.5132857035976568e+00 0 0 0
91 1 1 7.7978330584970709e-02 1.1723279141647597e+01 4.2506168177165957e+00 1.2409206630038540e+01 0 0 0
92 1 1 8.1398802401991238e-02 2.6277552865669342e+01 4.1489315813622323e+00 1.2592216110664864e+01 0 0 0
93 1 1 8.0986483983894922e-02 1.1366728850524224e+01 4.2293109043996493e+00 2.4556578938418161e+00 0 0 0
94 1 1 9.1589286751178486e-02 2.5945143152795961e+01 4.2267795451093786e+00 2.1426422658732132e+00 0 0 0
95 1 1 8.7016886770197560e-02 4.1280313689415067e+00 7.8814725638221628e+00 1.2698543324467161e+01 0 0 0
96 1 1 8.8689127472936155e-02 1.8842596592766608e+01 7.9127739747834731e+00 1.2622696593908200e+01 0 0 0
97 1 1 -2.5082894357634150e-01 3.7883116861109984e+00 5.2815094018966247e-01 4.2589799373223176e+00 0 1 0
98 1 1 -2.6581893620814184e-01 1.8369008892958721e+01 5.8385236634408721e-01 4.2531898035732176e+00 0 1 0
99 1 1 -2.7152091694593228e-01 1.1884590768763049e+01 4.5856183473178169e-01 1.4171003501576626e+01 0 0 0
100 1 1 -2.6567328508133620e-01 2.6224704506117295e+01 6.6722678679985936e-01 1.4423786697433581e+01 0 0 0
101 1 1 -2.7512771563210964e-01 1.1057813897222509e+01 1.1666803476097764e+01 4.1977627242869815e+00 0 -1 0
102 1 1 -2.4942117395863456e-01 2.5658930349051182e+01 1.1640833457588089e+01 4.4139873097919349e+00 0 -1 0
103 1 1 -2.3763834439651502e-01 4.4277671620809320e+00 6.5761123223216922e-01 1.4190951349039441e+01 0 1 0
104 1 1 -2.6721806159110462e-01 1.9286925648718121e+01 4.9578703327052204e-01 1.3931574711902513e+01 0 1 0
105 1 1 -2.7187225307376373e-01 3.6477261199420346e+00 6.1944343176346264e+00 3.9852925583285965e+00 0 0 0
106 1 1 -2.5068713925568131e-01 1.8213313123443594e+01 6.2168903320808484e+00 4.2688712883452284e+00 0 0 0
107 1 1 -2.7793638083651079e-01 1.2140570266688766e+01 6.2158926495856388e+00 1.3977811641274567e+01 0 0 0
108 1 1 -2.8122090681625711e-01 2.6449892488686771e+01 6.2385397181571234e+00 1.3967472234357722e+01 0 0 0
109 1 1 -2.7896291075546864e-01 1.1086433843320499e+01 6.0532326565290262e+00 4.1545578091673256e+00 0 0 0
110 1 1 -2.6638498609795241e-01 2.5675719325051428e+01 6.0523455574187084e+00 3.9999356277459777e+00 0 0 0
111 1 1 -2.4371089204523380e-01 4.3025153284173463e+00 5.9468808200523808e+00 1.4383164189656430e+01 0 0 0
112 1 1 -2.7736939302620028e-01 1.9163283922638758e+01 5.9313624736110997e+00 1.4174479797315987e+01 0 0 0
113 1 1 6.7964618441308827e-02 8.5721878947502397e+00 2.2030101934448387e+00 1.6903437991017704e+01 0 0 0
114 1 1 6.4632158184260283e-02 2.3156843231579124e+01 2.5077863252847057e+00 1.7075060916946477e+01 0 0 0
115 1 1 6.5400054376225716e-02 6.9905098790564493e+00 9.9364073334637641e+00 6.8062113345456066e+00 0 0 0
116 1 1 6.1455503769452746e-02 2.1678319296283306e+01 9.5688371168870425e+00 7.0862217687954585e+00 0 0 0
117 1 1 7.2752256430302725e-02 8.8875711232910259e-01 9.5895804279356422e+00 1.6622982006900187e+01 0 0 0
118 1 1 6.8333461729152611e-02 1.5530709597320824e+01 9.5576907908266033e+00 1.6677481168980716e+01 0 0 0
119 1 1 7.0038779707989982e-02 1.4350867582925854e+01 2.2079827674342045e+00 6.9312296718933073e+00 0 0 0
120 1 1 7.9003444100585379e-02 2.8927475393413740e+01 2.5060707946476781e+00 6.7225269327859101e+00 0 0 0
121 1 1 7.3261307279643334e-02 8.3386433079117133e+00 8.0581583125027159e+00 1.6621888072779459e+01 0 0 0
122 1 1 6.5790973522997814e-02 2.2854827476190149e+01 8.1226962597921943e+00 1.6772013550629080e+01 0 0 0
123 1 1 7.4114051630555913e-02 6.9615448102092294e+00 4.1870871325077097e+00 6.8397282523616125e+00 0 0 0
124 1 1 6.8341684837434344e-02 2.1707041458971339e+01 3.9997446556876706e+00 7.2036794137903799e+00 0 0 0
125 1 1 8.1625770076878310e-02 1.0927318250228013e+00 4.3055554623226717e+00 1.7038352901136122e+01 0 0 0
126 1 1 7.9246324338168889e-02 1.5829834696049705e+01 4.1843485164040253e+00 1.6837249581983873e+01 0 0 0
127 1 1 5.9200711341347981e-02 1.4310148137848046e+01 8.1115078589126366e+00 6.9937228853754947e+00 0 0 0
128 1 1 5.5965471843816367e-02 2.8940884324985362e+01 8.0889474107880783e+00 6.8133543184907968e+00 0 0 0
129 1 1 6.5042200276787157e-02 9.9337481725889401e+00 2.5927402260608039e+00 1.7055000564278739e+01 0 0 0
130 1 1 6.1434368178354445e-02 2.4563584228747764e+01 2.7233518509611896e+00 1.7122933665162449e+01 0 0 0
131 1 1 6.6773115330814259e-02 5.5836511627033403e+00 9.6622794588901222e+00 6.9391208172723466e+00 0 0 0
132 1 1 5.9670520329919916e-02 2.0302539461355618e+01 9.3319743304165996e+00 7.1061989955617690e+00 0 0 0
133 1 1 7.6992186669733328e-02 2.2969051526339612e+00 9.3307310709798497e+00 1.6685725724518768e+01 0 0 0
134 1 1 7.0999767308013495e-02 1.6911245047108693e+01 9.3710801729395570e+00 1.6788621432153597e+01 0 0 0
135 1 1 5.9508491143939850e-02 1.2955042988087795e+01 2.4641838142358523e+00 7.0453081637113497e+00 0 0 0
136 1 1 5.8208038853459224e-02 2.7570325624459006e+01 2.7574855055375060e+00 7.0402254707405065e+00 0 0 0
137 1 1 7.0005971774098077e-02 9.7407406819516407e+00 8.3820971510714202e+00 1.6721660515071797e+01 0 0 0
138 1 1 6.0547250546613085e-02 2.4271881053985929e+01 8.3783358965703165e+00 1.6880438817930060e+01 0 0 0
139 1 1 6.8541666295726986e-02 5.5243455030573951e+00 4.0488170808121469e+00 6.9028192277277354e+00 0 0 0
140 1 1 7.0748513558811080e-02 2.0338199885788878e+01 3.6714182717139314e+00 7.3031913549479670e+00 0 0 0
141 1 1 7.7766280053667786e-02 2.4579291882465801e+00 4.0116083544676231e+00 1.7032155196745585e+01 0 0 0
142 1 1 6.6001029480554849e-02 1.7211882220003009e+01 3.8695269046009741e+00 1.7063508044431352e+01 0 0 0
143 1 1 7.2516147788872151e-02 1.2936236986094340e+01 8.4719657162755375e+00 7.2056829280852481e+00 0 0 0
144 1 1 7.3251930673317228e-02 2.7549737706528092e+01 8.3716368201126201e+00 6.9270235546343155e+00 0 0 0
145 1 1 -3.7975196011085274e-02 1.0723530966405779e+01 1.7429672001422738e+00 1.7890274199876210e+01 0 0 0
146 1 1 -5.0399269783155440e-02 2.5281836172612458e+01 1.9083730639140406e+00 1.8032426431280982e+01 0 0 0
147 1 1 -4.6458114905853255e-02 4.8432180456834306e+00 1.0542945022971731e+01 7.8221895373006269e+00 0 0 0
148 1 1 -4.6095961915372935e-02 1.9508899692656321e+01 1.0192780270211124e+01 7.9581227620492241e+00 0 0 0
149 1 1 -5.9433306678341187e-02 3.0611379400088916e+00 1.0299170149592491e+01 1.7369585169062578e+01 0 0 0
150 1 1 -5.0119214808297799e-02 1.7675167291444055e+01 1.0303429828532090e+01 1.7566348312368827e+01 0 0 0
151 1 1 -3.8225854615823118e-02 1.2262990116436022e+01 1.6692202643017973e+00 7.9759055585254588e+00 0 0 0
152 1 1 -6.0026967094630672e-02 2.6937463429613185e+01 1.7870739036487906e+00 7.8750562346967348e+00 0 0 0
153 1 1 -3.3782261664749569e-02 1.0519919369560354e+01 7.5053679565290743e+00 1.7600021727089622e+01 0 0 0
154 1 1 -4.4009691000024845e-02 2.5012323541733767e+01 7.6751399446756920e+00 1.7814101970161129e+01 0 0 0
155 1 1 -4.4824118626407075e-02 4.8969130647872472e+00 4.8086435126200673e+00 7.9246357787043920e+00 0 0 0
156 1 1 -5.5838342193337706e-02 1.9528513578499371e+01 4.5617030770078895e+00 8.0763775103803290e+00 0 0 0
157 1 1 -5.7778985937029015e-02 3.3298756049118672e+00 4.8494681059545135e+00 1.7846947626638308e+01 0 0 0
158 1 1 -3.8842731238226638e-02 1.7858393179812953e+01 4.6326632032568700e+00 1.8108916004664735e+01 0 0 0
159 1 1 -4.0659403126097747e-02 1.2233015207624247e+01 7.7107922566470881e+00 8.1921242023795333e+00 0 0 0
160 1 1 -5.1457470206562751e-02 2.6831005594057292e+01 7.5614640924169212e+00 7.8814865759158659e+00 0 0 0
161 1 1 9.3127473050767018e-02 1.0073900417220248e+01 6.6564751427281843e-01 1.8606544179736275e+01 0 0 0
162 1 1 8.7833972914682673e-02 2.4767596281096079e+01 7.3799300258310374e-01 1.8664512155827094e+01 0 0 0
163 1 1 9.7028338104093073e-02 5.5612260191896485e+00 1.1464799169595842e+01 8.6296138944130139e+00 0 0 0
164 1 1 9.9991397718504765e-02 2.0094915300826912e+01 1.1268867781467570e+01 8.6841335047345307e+00 0 0 0
165 1 1 1.0617551505386134e-01 2.5274037873751438e+00 1.1379847720562475e+01 1.8169557902657708e+01 0 0 0
166 1 1 1.0534693115027392e-01 1.7041632193832122e+01 1.1280953648151852e+01 1.8366888749580035e+01 0 0 0
167 1 1 9.6141838442597188e-02 1.2918544995584925e+01 6.9197406633632097e-01 8.7826311306232583e+00 0 0 0
168 1 1 1.0635438032493316e-01 2.7599329736237070e+01 6.8653336202654702e-01 8.4976427847103313e+00 0 0 0
169 1 1 1.0731529411908486e-01 9.8994388657974763e+00 6.5037142871517721e+00 1.8366139965703439e+01 0 0 0
170 1 1 1.0753979086904937e-01 2.4472258877951209e+01 6.5255466906371495e+00 1.8446105539126030e+01 0 0 0
171 1 1 9.1011768349633829e-02 5.5361415263267322e+00 5.8985532778846892e+00 8.6172096205244095e+00 0 0 0
172 1 1 9.5253528640520210e-02 2.0025230055427908e+01 5.7329295689532573e+00 8.6842866756337092e+00 0 0 0
173 1 1 9.3678530094159426e-02 2.7899099796852740e+00 5.8737231276039124e+00 1.8617804836328222e+01 0 0 0
174 1 1 1.0054534463577335e-01 1.7257041745789685e+01 5.6990221388897266e+00 1.8782774215400295e+01 0 0 0
175 1 1 9.7162034763530844e-02 1.2818362163471811e+01 6.5338666958337672e+00 8.7130080873143907e+00 0 0 0
176 1 1 8.8288735292479353e-02 2.7438575392471225e+01 6.5117403609663933e+00 8.6477543069046590e+00 0 0 0
177 1 1 -5.3349022527692511e-02 8.7251276459381479e+00 1.1504122110260470e+01 1.8239339887821128e+01 0 -1 0
178 1 1 -6.5172071695154252e-02 2.3396668915875374e+01 4.7212647417161563e-01 1.8430646473482966e+01 0 0 0
179 1 1 -6.1765990002685511e-02 6.9667055599985925e+00 1.1694690324403833e+01 8.5191487947251758e+00 0 0 0
180 1 1 -5.6232347684083153e-02 2.1506795962982551e+01 1.1545293242730567e+01 8.5556859996664549e+00 0 0 0
181 1 1 -5.5725618283275699e-02 1.1443519845089671e+00 1.1470525181289680e+01 1.8134148366889480e+01 0 0 0
182 1 1 -4.1120468384776315e-02 1.5677617334617800e+01 1.1626575829125862e+01 1.8033638008765198e+01 0 0 0
183 1 1 -5.7278108666152919e-02 1.4344028824666170e+01 4.9391489565668267e-01 8.5977028100622235e+00 0 0 0
184 1 1 -5.0945375838413451e-02 2.8975247920271133e+01 5.2397248464647550e-01 8.1645093686734302e+00 0 0 0
185 1 1 -6.3424694542072363e-02 8.5495143078483018e+00 6.2127923805859391e+00 1.8126165293692257e+01 0 0 0
186 1 1 -5.7814343255795944e-02 2.3155247881413128e+01 6.1815436476139816e+00 1.7971332069189305e+01 0 0 0
187 1 1 -6.0316790919672181e-02 6.9208905121729458e+00 6.0858834797136367e+00 8.3704823677055167e+00 0 0 0
188 1 1 -5.2590563123525121e-02 2.1394158980043507e+01 6.1016721121496049e+00 8.4991200858261280e+00 0 0 0
189 1 1 -5.8607495736006994e-02 1.3906552134924040e+00 6.1778720325448351e+00 1.8527417502288291e+01 0 0 0
190 1 1 -5.8868659909346047e-02 1.5912560727508835e+01 6.0664528981021553e+00 1.8347051966443487e+01 0 0 0
191 1 1 -4.1274506845943457e-02 1.4177518458399000e+01 6.2807273183479495e+00 8.4496473556673752e+00 0 0 0
192 1 1 -6.9532813826652759e-02 2.8792121177691229e+01 6.2067381338805419e+00 8.3131269957571110e+00 0 0 0
193 1 1 8.5012277989892845e-02 7.9147102250538506e+00 1.0416181766544961e+00 1.7462242680101962e+01 0 0 0
194 1 1 7.3803577071007015e-02 2.2551844762166628e+01 1.3405826001580343e+00 1.7717698243549229e+01 0 0 0
195 1 1 7.1238427373646912e-02 7.6870923665036823e+00 1.0921472866726244e+01 7.5388114753120377e+00 0 0 0
196 1 1 7.5309442224764017e-02 2.2314169336893844e+01 1.0706670982624537e+01 7.7357355690298686e+00 0 0 0
197 1 1 9.6123800985845248e-02 1.4840925027173819e+01 1.0696337826246014e+01 1.7281175447503951e+01 0 0 0
198 1 1 9.2626036257380334e-02 2.9583198770513363e+01 1.0520152789073403e+01 1.7486415908127363e+01 0 0 0
199 1 1 8.0479665450159360e-02 2.9700581566171042e+01 1.4394911132265482e+00 7.3620631919004325e+00 -1 0 0
200 1 1 7.9797081963998109e-02 1.5091031686387973e+01 1.1845424501082902e+00 7.6180495530423462e+00 0 0 0
201 1 1 9.3600450850183023e-02 7.6486283856550941e+00 7.0143145127770312e+00 1.7332392078928532e+01 0 0 0
202 1 1 6.8447486932587703e-02 2.2203156563720796e+01 7.0524557859166723e+00 1.7385363420162378e+01 0 0 0
203 1 1 8.7485698459623354e-02 7.6203788373077410e+00 5.2833846378806006e+00 7.4225724838644105e+00 0 0 0
204 1 1 8.9378779713391171e-02 2.2263408878392596e+01 5.1730917409521213e+00 7.8183359482395884e+00 0 0 0
205 1 1 6.7985973500077360e-02 1.5142045364483650e+01 5.2606852290188364e+00 1.7472082694669130e+01 0 0 0
206 1 1 7.4918808142204182e-02 4.5179408777472629e-01 5.3909537332912656e+00 1.7787690964668162e+01 1 0 0
207 1 1 7.9030801531006820e-02 2.9610862599064532e+01 7.0205360551905303e+00 7.4452272374768214e+00 -1 0 0
208 1 1 8.8947604028264390e-02 1.5047464640382307e+01 7.1194348102355383e+00 7.6802096490445146e+00 0 0 0
209 1 1 -2.7368746834470759e-01 7.6863245253839301e+00 3.0510225712566172e+00 1.5920810015114853e+01 0 0 0
210 1 1 -2.7146924012172119e-01 2.2335282941182200e+01 3.2942774855210462e+00 1.6001257951008185e+01 0 0 0
211 1 1 -2.5062521391833881e-01 7.8663046690535614e+00 9.0368676290879648e+00 5.8870122834750598e+00 0 0 0
212 1 1 -2.8198510859141451e-01 2.2533656532913522e+01 8.6611808847590730e+00 6.1406529778949741e+00 0 0 0
213 1 1 -2.8138794123287364e-01 1.4681223642384225e+01 8.5986997568428016e+00 1.5854405829085003e+01 0 0 0
214 1 1 -2.5655195774693085e-01 2.9384603977115582e+01 8.6512999977551424e+00 1.5672508644661173e+01 0 0 0
215 1 1 -2.7694422116750650e-01 4.0827169007734843e-01 3.5888035325767320e+00 5.9437380408831730e+00 0 0 0
216 1 1 -2.6102026191160382e-01 1.5303043330302007e+01 3.1190351535954695e+00 6.0945538663788819e+00 0 0 0
217 1 1 -2.6486033260198660e-01 7.3679035753470297e+00 8.8976999688461778e+00 1.5754332646520337e+01 0 0 0
218 1 1 -2.8756777176364223e-01 2.2066787425074708e+01 9.2137959618440739e+00 1.5997614491879100e+01 0 0 0
219 1 1 -2.7400020074654802e-01 7.8286799140584771e+00 3.2259588379273634e+00 6.0041773598723642e+00 0 0 0
220 1 1 -2.6586155031886988e-01 2.2580939450189803e+01 3.0796756087002799e+00 6.2678972105120998e+00 0 0 0
221 1 1 -2.4809794979377264e-01 1.4944594392755640e+01 3.2904085711809734e+00 1.5917309379351119e+01 0 0 0
222 1 1 -2.8443935911660123e-01 2.9425280025151718e+01 3.5071098303221895e+00 1.6161429515098391e+01 0 0 0
223 1 1 -2.6053261309264653e-01 4.9689180085313533e-01 8.9405558264133553e+00 5.8017947608583835e+00 0 0 0
224 1 1 -2.8203695098111964e-01 1.5076056966801398e+01 8.9996050870288595e+00 5.9675066919854203e+00 0 0 0
225 1 2 2.8639022229606703e-01 6.6242675893963243e+00 1.1373457234774543e+01 3.8763170113107148e+00 0 0 0
226 1 2 2.6394040593906998e-01 2.1195969870856032e+01 1.1469550958834532e+01 4.0836008602393363e+00 0 0 0
227 1 2 2.6106443858891015e-01 8.9828679870744903e+00 1.0227369655229295e+00 1.3907387961311871e+01 0 0 0
228 1 2 2.8777862249271124e-01 2.3407839971490635e+01 1.1575546227231079e+00 1.3824900153407356e+01 0 0 0
229 1 2 2.6945661522949371e-01 1.4053708781346304e+01 9.2975524158456280e-01 3.8314225881847062e+00 0 0 0
230 1 2 2.4523395912739437e-01 2.8446373615971574e+01 1.1507418983815425e+00 3.9489675920840872e+00 0 0 0
231 1 2 2.8536104702232196e-01 1.5166050267547340e+00 1.1433703926215575e+01 1.4164195791323548e+01 0 0 0
232 1 2 2.6288478364890522e-01 1.6222123493833092e+01 1.1185910186573421e+01 1.3825996427496644e+01 0 0 0
233 1 2 2.7121451989237388e-01 6.6998142088234074e+00 5.7145774087792987e+00 3.9333580794629377e+00 0 0 0
234 1 2 2.6188505864583189e-01 2.0936067112072749e+01 5.3074954456057970e+00 3.9960252450039193e+00 0 0 0
235 1 2 2.5325894084333966e-01 9.1606699411956019e+00 6.6970745130694791e+00 1.4031597298652576e+01 0 0 0
236 1 2 2.8390130007906905e-01 2.3477175141609536e+01 6.6736671496724203e+00 1.3903393038282884e+01 0 0 0
237 1 2 2.7422908802502627e-01 1.4121214495214431e+01 6.4417120597235318e+00 4.1405581446074882e+00 0 0 0
238 1 2 2.6599601218345009e-01 2.8574254161110563e+01 6.7158437490467433e+00 3.6076055199787418e+00 0 0 0
239 1 2 2.8035635840135065e-01 1.3330653200954776e+00 5.5979686170118930e+00 1.4027685489754619e+01 0 0 0
240 1 2 2.8184122964916786e-01 1.6244061541001532e+01 5.1835371064094229e+00 1.3872392808809197e+01 0 0 0
241 1 2 2.6067177263581920e-01 6.6488030366572470e+00 3.3438114177272444e+00 4.1098871453888658e-02 0 0 0
242 1 2 2.4932862397471328e-01 2.1386801184018825e+01 3.6445730110761416e+00 2.9945553088768451e-01 0 0 0
243 1 2 2.5982346644499060e-01 8.6709167079507612e+00 8.7997717375178492e+00 1.0198713258359152e+01 0 0 0
244 1 2 2.5982763145103238e-01 2.3372321442643035e+01 8.8065138296852528e+00 1.0341186399377708e+01 0 0 0
245 1 2 2.6684841004369397e-01 1.4157854401943633e+01 8.5059877629450575e+00 2.4354293805542573e-01 0 0 0
246 1 2 2.6989449417799183e-01 2.8969416495695459e+01 8.8634705476158668e+00 4.7027949307935174e-01 0 0 0
247 1 2 2.6430729458926844e-01 1.1370718369993664e+00 3.3139286013141058e+00 1.0265155367375016e+01 0 0 0
248 1 2 2.5363003767559511e-01 1.5803083437480886e+01 3.4152514313589095e+00 1.0250214076536501e+01 0 0 0
249 1 2 2.6228922691804890e-01 6.9451900837417533e+00 9.6039256982141055e+00 6.2876243259917497e-01 0 0 0
250 1 2 2.5747672611051931e-01 2.1637220026857424e+01 9.1614021984168943e+00 6.2709687922960156e-01 0 0 0
251 1 2 2.7371602614877705e-01 8.7192317755767501e+00 3.3031704762430580e+00 1.0192598269399756e+01 0 0 0
252 1 2 2.6783957312616824e-01 2.3211044356702718e+01 2.9019159234288630e+00 1.0500429022531897e+01 0 0 0
253 1 2 2.7960203624909202e-01 1.4339941983993080e+01 2.9980699262818331e+00 2.9625929324263828e-01 0 0 0
254 1 2 2.6215295111285181e-01 2.9093866716727252e+01 3.0865648090454894e+00 1.9956029330788809e+01 0 0 -1
255 1 2 2.5389489707250518e-01 1.1884716844112859e+00 9.0438954968405678e+00 1.0505372807178709e+01 0 0 0
256 1 2 2.7448939902105113e-01 1.5852420148852987e+01 8.9536300566874587e+00 1.0376438348667431e+01 0 0 0
257 1 2 2.6529478246340898e-01 2.3349875845110177e+00 2.4630283893960456e+00 2.5578741731716437e+00 0 0 0
258 1 2 2.7616890730907268e-01 1.7032366515037904e+01 2.5248933037821444e+00 2.4375669415924190e+00 0 0 0
259 1 2 2.7984292768655994e-01 1.3097990681257063e+01 9.5340531428114179e+00 1.2613230172332855e+01 0 0 0
260 1 2 2.7815153698136469e-01 2.7774920652337933e+01 1.0012725167855965e+01 1.2815616934374505e+01 0 0 0
261 1 2 2.5445338555871694e-01 9.8325870597206837e+00 9.4783528430119119e+00 2.6934171182024937e+00 0 0 0
262 1 2 2.6937458800012593e-01 2.4467065883675705e+01 9.4504579739176080e+00 2.8550353046970316e+00 0 0 0
263 1 2 2.4721007812168028e-01 5.6928165855863835e+00 2.7029289911355878e+00 1.2543838747278114e+01 0 0 0
264 1 2 2.5903145176497344e-01 2.0300230793940646e+01 2.9349976734451317e+00 1.2539346460924042e+01 0 0 0
265 1 2 2.6710826502494228e-01 2.4030507130195327e+00 8.3777969856874250e+00 2.6177115030106952e+00 0 0 0
266 1 2 2.7341064372797730e-01 1.7037812079807381e+01 8.4059365481393495e+00 2.5595167721213525e+00 0 0 0
267 1 2 2.8035098706590256e-01 1.3243230019443523e+01 4.1118582258741228e+00 1.2393503302862600e+01 0 0 0
268 1 2 2.6343310874263343e-01 2.7721074593852350e+01 3.8419516695465838e+00 1.2680093607534653e+01 0 0 0
269 1 2 2.6369083484294165e-01 9.8918037370471907e+00 3.8180954022056151e+00 2.5820261236379580e+00 0 0 0
270 1 2 2.8132334214064098e-01 2.4532978043481563e+01 3.7872399923513438e+00 2.5733854841746759e+00 0 0 0
271 1 2 2.7136655712584001e-01 5.6864784625040796e+00 8.1129918674592556e+00 1.2781105810506777e+01 0 0 0
272 1 2 2.7087617171462414e-01 2.0334147568439207e+01 8.1218905107613857e+00 1.2601630122948595e+01 0 0 0
273 1 2 2.7490912313457033e-01 1.0588320209823596e+01 3.6105642955840036e+00 1.6102347722494354e+01 0 0 0
274 1 2 2.7710743824346024e-01 2.5243104537549186e+01 3.8216404666451664e+00 1.6295342517159767e+01 0 0 0
275 1 2 2.7414506623629964e-01 4.8712954892030949e+00 8.5739510765389237e+00 6.2105487845381111e+00 0 0 0
276 1 2 2.8428793206646674e-01 1.9577581020109520e+01 8.2942795445936994e+00 6.2869837869398824e+00 0 0 0
277 1 2 2.7665368220619080e-01 2.9712153356316429e+00 8.1232358301583680e+00 1.6020243235178860e+01 0 0 0
278 1 2 2.6757653827040168e-01 1.7591873156030832e+01 8.2569389945032725e+00 1.5994188303482948e+01 0 0 0
279 1 2 2.8466432727500751e-01 1.2260618587094777e+01 3.6005024272100528e+00 6.2552058250287690e+00 0 0 0