ITEM: TIMESTEP
0
ITEM: NUMBER OF ATOMS
448
ITEM: BOX BOUNDS xy xz yz pp pp pp
-2.4186686450000000e-01 1.3879200000000001e+01 8.1284706647000001e-16
0.0000000000000000e+00 1.3274800000000003e+01 -2.4186686450000000e-01
0.0000000000000000e+00 2.2679910358299999e+01 1.4036330231000001e-15
ITEM: ATOMS id type xs ys zs
1 1 0.343149 0.121085 0.263219
2 2 0.244839 0.126102 0.254574
3 3 0.22532 0.154392 0.213886
4 3 0.202395 0.0991568 0.287858
5 2 0.403261 0.1507 0.218655
6 3 0.477377 0.146643 0.228785
7 3 0.36749 0.173958 0.181188
8 1 0.382518 0.0855402 0.318564
9 2 0.318105 0.0639363 0.369268
10 4 0.350514 0.0822807 0.421641
11 4 0.233248 0.0277699 0.359
12 2 0.487104 0.072309 0.327855
13 4 0.512901 0.0303165 0.376825
14 4 0.546362 0.103521 0.288205
15 1 0.406851 0.371085 0.486781
16 2 0.505161 0.376102 0.495426
17 3 0.52468 0.404392 0.536114
18 3 0.547605 0.349157 0.462142
19 2 0.346739 0.4007 0.531345
20 3 0.272623 0.396643 0.521215
21 3 0.38251 0.423958 0.568812
22 1 0.367482 0.33554 0.431436
23 2 0.431895 0.313936 0.380732
24 4 0.399486 0.332281 0.328359
25 4 0.516752 0.27777 0.391
26 2 0.262896 0.322309 0.422145
27 4 0.237099 0.280317 0.373175
28 4 0.203638 0.353521 0.461795
29 1 0.156851 0.378914 0.236782
30 2 0.255162 0.373898 0.245426
31 3 0.27468 0.345608 0.286114
32 3 0.297605 0.400843 0.212142
33 2 0.0967379 0.3493 0.281345
34 3 0.0226228 0.353357 0.271215
35 3 0.13251 0.326042 0.318812
36 1 0.117482 0.41446 0.181436
37 2 0.181895 0.436064 0.130732
38 4 0.149486 0.417719 0.078358
39 4 0.266753 0.472231 0.141
40 2 0.0128965 0.427691 0.172145
41 4 0.987098 0.469684 0.123174
42 4 0.953637 0.396478 0.211795
43 1 0.0931495 0.128915 0.0132186
44 2 0.994839 0.123898 0.00457426
45 3 0.97532 0.0956076 0.963886
46 3 0.952395 0.150843 0.0378575
47 2 0.153261 0.0992999 0.968655
48 3 0.227377 0.103357 0.978785
49 3 0.11749 0.0760424 0.931188
50 1 0.132518 0.16446 0.0685636
51 2 0.0681054 0.186064 0.119268
52 4 0.100514 0.167719 0.171641
53 4 0.983248 0.22223 0.109
54 2 0.237104 0.177691 0.0778552
55 4 0.262901 0.219683 0.126825
56 4 0.296362 0.146479 0.0382052
57 1 0.843149 0.121085 0.263219
58 2 0.744839 0.126102 0.254574
59 3 0.72532 0.154392 0.213886
60 3 0.702395 0.0991568 0.287858
61 2 0.903261 0.1507 0.218655
62 3 0.977377 0.146643 0.228785
63 3 0.86749 0.173958 0.181188
64 1 0.882518 0.0855402 0.318564
65 2 0.818105 0.0639363 0.369268
66 4 0.850514 0.0822807 0.421641
67 4 0.733248 0.0277699 0.359
68 2 0.987104 0.072309 0.327855
69 4 0.0129014 0.0303165 0.376825
70 4 0.0463624 0.103521 0.288205
71 1 0.906851 0.371085 0.486781
72 2 0.00516132 0.376102 0.495426
73 3 0.0246798 0.404392 0.536114
74 3 0.0476046 0.349157 0.462142
75 2 0.846739 0.4007 0.531345
76 3 0.772623 0.396643 0.521215
77 3 0.88251 0.423958 0.568812
78 1 0.867482 0.33554 0.431436
79 2 0.931895 0.313936 0.380732
80 4 0.899486 0.332281 0.328359
81 4 0.0167519 0.27777 0.391
82 2 0.762896 0.322309 0.422145
83 4 0.737099 0.280317 0.373175
84 4 0.703638 0.353521 0.461795
85 1 0.656851 0.378914 0.236781
86 2 0.755161 0.373898 0.245426
87 3 0.77468 0.345608 0.286114
88 3 0.797605 0.400843 0.212142
89 2 0.596739 0.3493 0.281344
90 3 0.522623 0.353357 0.271215
91 3 0.63251 0.326042 0.318811
92 1 0.617481 0.41446 0.181436
93 2 0.681895 0.436064 0.130732
94 4 0.649485 0.417718 0.078359
95 4 0.766751 0.47223 0.140999
96 2 0.512896 0.427691 0.172146
97 4 0.487099 0.469684 0.123175
98 4 0.453638 0.396479 0.211795
99 1 0.593149 0.128915 0.0132186
100 2 0.494839 0.123898 0.00457426
101 3 0.47532 0.0956075 0.963886
102 3 0.452395 0.150843 0.0378575
103 2 0.653261 0.0992999 0.968655
104 3 0.727377 0.103357 0.978785
105 3 0.61749 0.0760424 0.931188
106 1 0.632518 0.16446 0.0685636
107 2 0.568105 0.186064 0.119268
108 4 0.600514 0.167719 0.171641
109 4 0.483248 0.22223 0.109
110 2 0.737104 0.177691 0.0778552
111 4 0.762901 0.219683 0.126825
112 4 0.796362 0.146479 0.0382052
113 1 0.343149 0.621085 0.263219
114 2 0.244838 0.626102 0.254574
115 3 0.22532 0.654392 0.213886
116 3 0.202395 0.599157 0.287858
117 2 0.403261 0.6507 0.218655
118 3 0.477377 0.646643 0.228785
119 3 0.36749 0.673958 0.181188
120 1 0.382518 0.58554 0.318564
121 2 0.318105 0.563936 0.369268
122 4 0.350514 0.582281 0.421641
123 4 0.233248 0.52777 0.359
124 2 0.487104 0.572309 0.327855
125 4 0.512901 0.530317 0.376825
126 4 0.546362 0.603521 0.288205
127 1 0.406851 0.871085 0.486781
128 2 0.505161 0.876102 0.495426
129 3 0.52468 0.904392 0.536114
130 3 0.547605 0.849157 0.462142
131 2 0.346739 0.9007 0.531345
132 3 0.272623 0.896643 0.521215
133 3 0.38251 0.923958 0.568812
134 1 0.367482 0.83554 0.431436
135 2 0.431895 0.813936 0.380732
136 4 0.399486 0.832281 0.328359
137 4 0.516752 0.77777 0.391
138 2 0.262896 0.822309 0.422145
139 4 0.237099 0.780317 0.373175
140 4 0.203638 0.853521 0.461795
141 1 0.156851 0.878914 0.236782
142 2 0.255162 0.873898 0.245426
143 3 0.27468 0.845608 0.286114
144 3 0.297605 0.900843 0.212142
145 2 0.0967379 0.8493 0.281345
146 3 0.0226228 0.853357 0.271215
147 3 0.13251 0.826042 0.318812
148 1 0.117482 0.91446 0.181436
149 2 0.181895 0.936064 0.130732
150 4 0.149486 0.917719 0.078358
151 4 0.266753 0.972231 0.141
152 2 0.0128965 0.927691 0.172145
153 4 0.987098 0.969684 0.123174
154 4 0.953637 0.896478 0.211795
155 1 0.0931495 0.628915 0.0132186
156 2 0.994839 0.623898 0.00457425
157 3 0.97532 0.595608 0.963886
158 3 0.952395 0.650843 0.0378575
159 2 0.153261 0.5993 0.968655
160 3 0.227377 0.603357 0.978785
161 3 0.11749 0.576042 0.931188
162 1 0.132518 0.66446 0.0685636
163 2 0.0681054 0.686064 0.119268
164 4 0.100514 0.667719 0.171641
165 4 0.983248 0.72223 0.109
166 2 0.237104 0.677691 0.0778552
167 4 0.262901 0.719683 0.126825
168 4 0.296362 0.646479 0.0382052
169 1 0.843149 0.621085 0.263219
170 2 0.744839 0.626102 0.254574
171 3 0.72532 0.654392 0.213886
172 3 0.702395 0.599157 0.287858
173 2 0.903261 0.6507 0.218655
174 3 0.977377 0.646643 0.228785
175 3 0.86749 0.673958 0.181188
176 1 0.882518 0.58554 0.318564
177 2 0.818105 0.563936 0.369268
178 4 0.850514 0.582281 0.421641
179 4 0.733248 0.52777 0.359
180 2 0.987104 0.572309 0.327855
181 4 0.0129014 0.530317 0.376825
182 4 0.0463624 0.603521 0.288205
183 1 0.906851 0.871085 0.486781
184 2 0.00516135 0.876102 0.495426
185 3 0.0246798 0.904392 0.536114
186 3 0.0476046 0.849157 0.462142
187 2 0.846739 0.9007 0.531345
188 3 0.772623 0.896643 0.521215
189 3 0.88251 0.923958 0.568812
190 1 0.867482 0.83554 0.431436
191 2 0.931895 0.813936 0.380732
192 4 0.899486 0.832281 0.328359
193 4 0.016752 0.77777 0.391
194 2 0.762896 0.822309 0.422145
195 4 0.737099 0.780317 0.373175
196 4 0.703638 0.853521 0.461795
197 1 0.656851 0.878914 0.236781
198 2 0.755161 0.873898 0.245426
199 3 0.77468 0.845608 0.286114
200 3 0.797605 0.900843 0.212142
201 2 0.596739 0.8493 0.281344
202 3 0.522623 0.853357 0.271215
203 3 0.63251 0.826042 0.318811
204 1 0.617481 0.91446 0.181436
205 2 0.681895 0.936064 0.130732
206 4 0.649485 0.917718 0.078359
207 4 0.766751 0.97223 0.140999
208 2 0.512896 0.927691 0.172146
209 4 0.487099 0.969684 0.123175
210 4 0.453638 0.896479 0.211795
211 1 0.593149 0.628915 0.0132186
212 2 0.494839 0.623898 0.00457426
213 3 0.47532 0.595608 0.963886
214 3 0.452395 0.650843 0.0378575
215 2 0.653261 0.5993 0.968655
216 3 0.727377 0.603357 0.978785
217 3 0.61749 0.576042 0.931188
218 1 0.632518 0.66446 0.0685636
219 2 0.568105 0.686064 0.119268
220 4 0.600514 0.667719 0.171641
221 4 0.483248 0.72223 0.109
222 2 0.737104 0.677691 0.0778552
223 4 0.762901 0.719683 0.126825
224 4 0.796362 0.646479 0.0382052
225 1 0.343149 0.121085 0.763219
226 2 0.244838 0.126102 0.754574
227 3 0.22532 0.154392 0.713886
228 3 0.202395 0.0991568 0.787858
229 2 0.403262 0.1507 0.718655
230 3 0.477377 0.146643 0.728785
231 3 0.36749 0.173958 0.681188
232 1 0.382519 0.08554 0.818564
233 2 0.318105 0.0639364 0.869268
234 4 0.350514 0.082282 0.921641
235 4 0.233247 0.0277697 0.859
236 2 0.487104 0.072309 0.827855
237 4 0.512902 0.0303163 0.876825
238 4 0.546363 0.103521 0.788205
239 1 0.406884 0.371111 0.986827
240 2 0.505523 0.37612 0.995464
241 3 0.524707 0.404404 0.0361316
242 3 0.547611 0.349157 0.962139
243 2 0.346523 0.400814 0.0315136
244 3 0.27261 0.396643 0.0212163
245 3 0.38251 0.423972 0.0688334
246 1 0.367424 0.33545 0.931304
247 2 0.431899 0.313926 0.880751
248 4 0.399393 0.33234 0.828196
249 4 0.516992 0.277665 0.891021
250 2 0.262913 0.322301 0.922141
251 4 0.237012 0.28018 0.873021
252 4 0.203415 0.353626 0.961928
253 1 0.156851 0.378915 0.736781
254 2 0.25516 0.373898 0.745426
255 3 0.274683 0.345608 0.786114
256 3 0.297605 0.400843 0.712142
257 2 0.096739 0.349301 0.781343
258 3 0.0226229 0.353357 0.771215
259 3 0.132507 0.326043 0.81881
260 1 0.117482 0.414459 0.681437
261 2 0.181895 0.436064 0.630732
262 4 0.149486 0.417719 0.57836
263 4 0.266751 0.47223 0.641
264 2 0.0128961 0.427691 0.672145
265 4 0.987099 0.469683 0.623176
266 4 0.953639 0.396479 0.711794
267 1 0.0931495 0.128915 0.513219
268 2 0.994838 0.123898 0.504574
269 3 0.97532 0.0956076 0.463886
270 3 0.952395 0.150843 0.537858
271 2 0.153262 0.0992999 0.468655
272 3 0.227377 0.103357 0.478785
273 3 0.11749 0.0760424 0.431188
274 1 0.132518 0.16446 0.568564
275 2 0.0681054 0.186064 0.619268
276 4 0.100514 0.167719 0.671641
277 4 0.983248 0.22223 0.609
278 2 0.237104 0.177691 0.577855
279 4 0.262901 0.219683 0.626825
280 4 0.296362 0.146479 0.538205
281 1 0.843149 0.121085 0.763219
282 2 0.744838 0.126102 0.754574
283 3 0.72532 0.154392 0.713886
284 3 0.702395 0.0991568 0.787858
285 2 0.903262 0.1507 0.718655
286 3 0.977377 0.146643 0.728785
287 3 0.86749 0.173958 0.681188
288 1 0.882518 0.0855402 0.818564
289 2 0.818105 0.0639363 0.869268
290 4 0.850514 0.0822807 0.921641
291 4 0.733248 0.0277699 0.859
292 2 0.987104 0.072309 0.827855
293 4 0.0129014 0.0303165 0.876825
294 4 0.0463625 0.103521 0.788205
295 1 0.906851 0.371085 0.986782
296 2 0.00516151 0.376102 0.995426
297 3 0.0246799 0.404392 0.036114
298 3 0.0476048 0.349157 0.962142
299 2 0.846738 0.4007 0.0313446
300 3 0.772623 0.396643 0.0212146
301 3 0.88251 0.423958 0.0688115
302 1 0.867482 0.33554 0.931436
303 2 0.931895 0.313936 0.880732
304 4 0.899486 0.332281 0.828359
305 4 0.0167521 0.27777 0.891
306 2 0.762896 0.322309 0.922145
307 4 0.737099 0.280317 0.873175
308 4 0.703638 0.353521 0.961795
309 1 0.656851 0.378915 0.736781
310 2 0.755162 0.373898 0.745426
311 3 0.77468 0.345608 0.786114
312 3 0.797605 0.400843 0.712142
313 2 0.596739 0.3493 0.781345
314 3 0.522623 0.353357 0.771215
315 3 0.63251 0.326042 0.818812
316 1 0.617482 0.41446 0.681436
317 2 0.681895 0.436064 0.630732
318 4 0.649486 0.417719 0.578359
319 4 0.766752 0.47223 0.641
320 2 0.512896 0.427691 0.672145
321 4 0.487099 0.469684 0.623175
322 4 0.453637 0.396479 0.711795
323 1 0.593149 0.128915 0.513219
324 2 0.494838 0.123898 0.504574
325 3 0.47532 0.0956075 0.463886
326 3 0.452395 0.150843 0.537858
327 2 0.653262 0.0992999 0.468655
328 3 0.727377 0.103357 0.478785
329 3 0.61749 0.0760424 0.431188
330 1 0.632518 0.16446 0.568564
331 2 0.568105 0.186064 0.619268
332 4 0.600514 0.167719 0.671641
333 4 0.483248 0.22223 0.609
334 2 0.737104 0.177691 0.577855
335 4 0.762901 0.219684 0.626825
336 4 0.796362 0.146479 0.538205
337 1 0.343149 0.621085 0.763219
338 2 0.244838 0.626102 0.754574
339 3 0.22532 0.654392 0.713886
340 3 0.202395 0.599157 0.787858
341 2 0.403262 0.6507 0.718655
342 3 0.477377 0.646643 0.728785
343 3 0.36749 0.673958 0.681188
344 1 0.382519 0.58554 0.818564
345 2 0.318105 0.563936 0.869268
346 4 0.350514 0.582282 0.921641
347 4 0.233247 0.52777 0.859
348 2 0.487104 0.572309 0.827855
349 4 0.512902 0.530316 0.876825
350 4 0.546363 0.603521 0.788205
351 1 0.406884 0.871111 0.986827
352 2 0.505523 0.87612 0.995464
353 3 0.524707 0.904404 0.0361316
354 3 0.547611 0.849157 0.962139
355 2 0.346523 0.900814 0.0315135
356 3 0.27261 0.896643 0.0212163
357 3 0.38251 0.923972 0.0688334
358 1 0.367424 0.83545 0.931304
359 2 0.431899 0.813926 0.880751
360 4 0.399393 0.83234 0.828196
361 4 0.516992 0.777665 0.891021
362 2 0.262913 0.822301 0.922141
363 4 0.237012 0.78018 0.873021
364 4 0.203415 0.853626 0.961928
365 1 0.156851 0.878915 0.736781
366 2 0.25516 0.873898 0.745426
367 3 0.274683 0.845608 0.786114
368 3 0.297605 0.900843 0.712142
369 2 0.0967391 0.849301 0.781343
370 3 0.0226229 0.853357 0.771215
371 3 0.132507 0.826043 0.81881
372 1 0.117482 0.914459 0.681437
373 2 0.181895 0.936064 0.630732
374 4 0.149486 0.91772 0.57836
375 4 0.266751 0.97223 0.641
376 2 0.0128961 0.927691 0.672145
377 4 0.987099 0.969683 0.623176
378 4 0.953639 0.896479 0.711794
379 1 0.0931495 0.628915 0.513219
380 2 0.994838 0.623898 0.504574
381 3 0.97532 0.595608 0.463886
382 3 0.952395 0.650843 0.537858
383 2 0.153262 0.5993 0.468655
384 3 0.227377 0.603357 0.478785
385 3 0.11749 0.576042 0.431188
386 1 0.132518 0.66446 0.568564
387 2 0.0681054 0.686064 0.619268
388 4 0.100514 0.667719 0.671641
389 4 0.983248 0.72223 0.609
390 2 0.237104 0.677691 0.577855
391 4 0.262901 0.719683 0.626825
392 4 0.296362 0.646479 0.538205
393 1 0.843149 0.621085 0.763219
394 2 0.744838 0.626102 0.754574
395 3 0.72532 0.654392 0.713886
396 3 0.702395 0.599157 0.787858
397 2 0.903262 0.6507 0.718655
398 3 0.977377 0.646643 0.728785
399 3 0.86749 0.673958 0.681188
400 1 0.882518 0.58554 0.818564
401 2 0.818105 0.563936 0.869268
402 4 0.850514 0.582281 0.921641
403 4 0.733248 0.52777 0.859
404 2 0.987104 0.572309 0.827855
405 4 0.0129014 0.530316 0.876825
406 4 0.0463625 0.603521 0.788205
407 1 0.906851 0.871085 0.986782
408 2 0.00516153 0.876102 0.995426
409 3 0.0246799 0.904392 0.036114
410 3 0.0476048 0.849157 0.962142
411 2 0.846738 0.9007 0.0313446
412 3 0.772623 0.896643 0.0212146
413 3 0.88251 0.923958 0.0688115
414 1 0.867482 0.83554 0.931436
415 2 0.931895 0.813936 0.880732
416 4 0.899486 0.832281 0.828359
417 4 0.0167521 0.77777 0.891
418 2 0.762896 0.822309 0.922145
419 4 0.737099 0.780317 0.873175
420 4 0.703638 0.853521 0.961795
421 1 0.656851 0.878915 0.736781
422 2 0.755162 0.873898 0.745426
423 3 0.77468 0.845608 0.786114
424 3 0.797605 0.900843 0.712142
425 2 0.596739 0.8493 0.781345
426 3 0.522623 0.853357 0.771215
427 3 0.63251 0.826042 0.818812
428 1 0.617482 0.91446 0.681436
429 2 0.681895 0.936064 0.630732
430 4 0.649486 0.917719 0.578359
431 4 0.766752 0.97223 0.641
432 2 0.512896 0.927691 0.672145
433 4 0.487099 0.969684 0.623175
434 4 0.453637 0.896479 0.711795
435 1 0.593149 0.628915 0.513219
436 2 0.494838 0.623898 0.504574
437 3 0.47532 0.595608 0.463886
438 3 0.452395 0.650843 0.537858
439 2 0.653262 0.5993 0.468655
440 3 0.727377 0.603357 0.478785
441 3 0.61749 0.576042 0.431188
442 1 0.632518 0.66446 0.568564
443 2 0.568105 0.686064 0.619268
444 4 0.600514 0.667719 0.671641
445 4 0.483248 0.72223 0.609
446 2 0.737104 0.677691 0.577855
447 4 0.762901 0.719684 0.626825
448 4 0.796362 0.646479 0.538205
ITEM: TIMESTEP
1000
ITEM: NUMBER OF ATOMS
448
ITEM: BOX BOUNDS xy xz yz pp pp pp
-4.0200898982761613e-01 1.3883812363487717e+01 -3.5876554676758821e-01
-4.8804009078764921e-01 1.4299352574975508e+01 -3.8631079572317067e-02
2.0237818425809095e-01 2.2477532174041919e+01 5.3651248418795650e-01
ITEM: ATOMS id type xs ys zs
1 1 0.35194 0.167683 0.255606
2 2 0.253658 0.172938 0.24337
3 3 0.247866 0.189269 0.199282
4 3 0.212812 0.126284 0.273727
5 2 0.415691 0.205271 0.213009
6 3 0.486398 0.186805 0.227421
7 3 0.383039 0.232767 0.175271
8 1 0.386217 0.120782 0.30908
9 2 0.315537 0.0796993 0.351402
10 4 0.349678 0.0620947 0.404616
11 4 0.224385 0.0701607 0.339933
12 2 0.490013 0.113166 0.325911
13 4 0.509465 0.0817752 0.378428
14 4 0.554279 0.150142 0.290038
15 1 0.395624 0.379878 0.488444
16 2 0.49156 0.37526 0.498002
17 3 0.510539 0.399184 0.538774
18 3 0.529437 0.348871 0.461416
19 2 0.333669 0.411405 0.532479
20 3 0.261093 0.416134 0.514535
21 3 0.36378 0.438634 0.571067
22 1 0.354658 0.35218 0.430815
23 2 0.417436 0.33623 0.378848
24 4 0.379745 0.335237 0.326471
25 4 0.510019 0.323712 0.382003
26 2 0.249849 0.340742 0.42356
27 4 0.22824 0.309075 0.371879
28 4 0.189086 0.361568 0.465892
29 1 0.151543 0.400751 0.237371
30 2 0.248689 0.387875 0.248819
31 3 0.261867 0.382025 0.295452
32 3 0.291838 0.401172 0.211595
33 2 0.0844123 0.394412 0.282952
34 3 0.00438818 0.415458 0.2639
35 3 0.12529 0.389319 0.322069
36 1 0.117894 0.422699 0.177051
37 2 0.179667 0.404162 0.125017
38 4 0.143143 0.403505 0.0712384
39 4 0.270102 0.396586 0.137048
40 2 0.0206339 0.45954 0.16474
41 4 0.00384281 0.487841 0.110643
42 4 0.955782 0.464701 0.205999
43 1 0.103822 0.119281 0.00438707
44 2 0.0115696 0.144394 0.988835
45 3 0.986361 0.103992 0.954507
46 3 0.982656 0.192871 0.0194583
47 2 0.150634 0.0511559 0.972222
48 3 0.224392 0.0491497 0.985858
49 3 0.11553 0.0393889 0.932494
50 1 0.149243 0.162997 0.0556524
51 2 0.0880181 0.205872 0.101775
52 4 0.128648 0.220991 0.153528
53 4 0.00299721 0.234112 0.0874735
54 2 0.2533 0.152747 0.0655074
55 4 0.286398 0.202122 0.108886
56 4 0.307091 0.102654 0.0316182
57 1 0.854458 0.128834 0.254945
58 2 0.764972 0.166732 0.259954
59 3 0.7351 0.18043 0.217576
60 3 0.737507 0.152027 0.305427
61 2 0.905731 0.139222 0.200088
62 3 0.970533 0.107447 0.210642
63 3 0.857615 0.123999 0.166373
64 1 0.898908 0.0886884 0.30772
65 2 0.836582 0.0532233 0.360103
66 4 0.869693 0.08044 0.410517
67 4 0.755049 0.0105123 0.35157
68 2 0.00224947 0.0858166 0.312546
69 4 0.036303 0.0560153 0.364918
70 4 0.056279 0.0941771 0.265202
71 1 0.889701 0.383065 0.493235
72 2 0.990218 0.379943 0.500671
73 3 0.00818819 0.381948 0.544882
74 3 0.0314938 0.349078 0.468373
75 2 0.828073 0.406432 0.539243
76 3 0.757186 0.396054 0.526786
77 3 0.866483 0.399026 0.581977
78 1 0.853239 0.356021 0.435716
79 2 0.919201 0.358502 0.382745
80 4 0.883279 0.356993 0.329049
81 4 0.0090372 0.360986 0.393674
82 2 0.752015 0.322931 0.426739
83 4 0.735958 0.2824 0.375869
84 4 0.68721 0.33891 0.465111
85 1 0.655802 0.390704 0.23839
86 2 0.754446 0.385382 0.247206
87 3 0.766461 0.344615 0.287624
88 3 0.792374 0.429614 0.219412
89 2 0.596202 0.361854 0.284558
90 3 0.521228 0.363072 0.274852
91 3 0.636288 0.332395 0.318874
92 1 0.617436 0.422758 0.180902
93 2 0.679708 0.427764 0.125576
94 4 0.641203 0.402938 0.0768146
95 4 0.768692 0.451349 0.13445
96 2 0.513499 0.435726 0.173585
97 4 0.486951 0.466602 0.121534
98 4 0.454322 0.407374 0.215801
99 1 0.59051 0.115362 0.0129181
100 2 0.493867 0.123058 0.00210574
101 3 0.482108 0.10973 0.958117
102 3 0.454438 0.169526 0.0330264
103 2 0.651147 0.0689102 0.977643
104 3 0.724396 0.0753211 0.000340335
105 3 0.626776 0.0321516 0.943678
106 1 0.632615 0.158401 0.0675038
107 2 0.570363 0.191628 0.115297
108 4 0.608659 0.207913 0.166823
109 4 0.478372 0.203442 0.105386
110 2 0.735546 0.168745 0.0772384
111 4 0.764451 0.223679 0.119824
112 4 0.80028 0.129311 0.0450365
113 1 0.356885 0.638295 0.252712
114 2 0.260517 0.663167 0.250114
115 3 0.24643 0.710535 0.21362
116 3 0.226713 0.647583 0.291382
117 2 0.421351 0.65878 0.206977
118 3 0.491514 0.636642 0.222284
119 3 0.381204 0.685276 0.168831
120 1 0.38849 0.585787 0.304532
121 2 0.318455 0.564529 0.354564
122 4 0.339463 0.601123 0.405572
123 4 0.237627 0.520184 0.344372
124 2 0.491927 0.569971 0.316662
125 4 0.509528 0.538858 0.370567
126 4 0.560387 0.591901 0.279627
127 1 0.37468 0.881023 0.502496
128 2 0.468616 0.857119 0.519565
129 3 0.495523 0.900764 0.550582
130 3 0.510149 0.836298 0.48737
131 2 0.318621 0.931531 0.538263
132 3 0.250637 0.935636 0.522954
133 3 0.335842 0.944225 0.583947
134 1 0.332487 0.853972 0.445364
135 2 0.398139 0.829685 0.397405
136 4 0.364462 0.82762 0.343303
137 4 0.487978 0.81921 0.410798
138 2 0.226381 0.839392 0.440431
139 4 0.189618 0.789877 0.397192
140 4 0.169406 0.883399 0.475107
141 1 0.14195 0.87891 0.247173
142 2 0.236783 0.886725 0.264191
143 3 0.250836 0.873503 0.310884
144 3 0.275722 0.924648 0.228766
145 2 0.0724247 0.844705 0.28926
146 3 0.995105 0.834917 0.264161
147 3 0.10566 0.800549 0.317175
148 1 0.112438 0.911163 0.188789
149 2 0.184165 0.936914 0.140618
150 4 0.15319 0.933625 0.0872199
151 4 0.276648 0.941765 0.152014
152 2 0.0115263 0.94045 0.179293
153 4 0.000720284 0.00401713 0.137856
154 4 0.94367 0.906446 0.213279
155 1 0.101013 0.621274 0.00715746
156 2 0.00377665 0.614381 0.997897
157 3 0.985081 0.596378 0.955973
158 3 0.964739 0.642208 0.0362229
159 2 0.162896 0.592436 0.962973
160 3 0.241806 0.608309 0.967661
161 3 0.119716 0.555478 0.928971
162 1 0.138538 0.65518 0.063324
163 2 0.0744098 0.692817 0.107713
164 4 0.116676 0.713275 0.158297
165 4 0.982059 0.699667 0.0993762
166 2 0.24462 0.648642 0.0765415
167 4 0.269865 0.670465 0.129841
168 4 0.301331 0.622123 0.0350545
169 1 0.864365 0.634806 0.256741
170 2 0.772027 0.668463 0.260151
171 3 0.742464 0.692673 0.221044
172 3 0.746481 0.661914 0.305113
173 2 0.917046 0.639875 0.204127
174 3 0.991049 0.626455 0.216622
175 3 0.884326 0.685037 0.172762
176 1 0.906237 0.594322 0.310979
177 2 0.839575 0.559308 0.357633
178 4 0.858907 0.578995 0.412859
179 4 0.75549 0.52217 0.345208
180 2 0.0119252 0.613024 0.318639
181 4 0.0397868 0.598613 0.373479
182 4 0.0691862 0.628876 0.274599
183 1 0.881498 0.904361 0.491705
184 2 0.978259 0.91148 0.501992
185 3 0.996416 0.919631 0.546087
186 3 0.0189514 0.884855 0.463728
187 2 0.826533 0.931364 0.539384
188 3 0.753557 0.907579 0.539055
189 3 0.87109 0.946461 0.576405
190 1 0.843865 0.865349 0.436694
191 2 0.906203 0.822241 0.393648
192 4 0.867091 0.79751 0.342923
193 4 0.999016 0.818154 0.401593
194 2 0.739989 0.841228 0.429331
195 4 0.717078 0.773331 0.393924
196 4 0.676391 0.879142 0.462316
197 1 0.624771 0.888607 0.257359
198 2 0.721377 0.888348 0.271587
199 3 0.734859 0.865206 0.314605
200 3 0.762937 0.919006 0.237156
201 2 0.556294 0.857429 0.300022
202 3 0.487976 0.871553 0.282489
203 3 0.583811 0.848697 0.345474
204 1 0.595179 0.917812 0.198688
205 2 0.660797 0.914874 0.14602
206 4 0.626492 0.904338 0.0930664
207 4 0.751923 0.925418 0.156688
208 2 0.494812 0.948533 0.185034
209 4 0.482084 0.989712 0.132729
210 4 0.431164 0.938382 0.225513
211 1 0.597566 0.615751 0.018344
212 2 0.502292 0.627967 0.00371426
213 3 0.487978 0.596767 0.964342
214 3 0.472865 0.688966 0.0217234
215 2 0.656153 0.562153 0.981704
216 3 0.723704 0.561252 0.00241239
217 3 0.630703 0.566646 0.939613
218 1 0.638904 0.662546 0.0696233
219 2 0.576851 0.699583 0.117455
220 4 0.614505 0.705285 0.169306
221 4 0.487808 0.721068 0.106297
222 2 0.742164 0.674473 0.0801956
223 4 0.770479 0.724326 0.125068
224 4 0.799823 0.630739 0.0451344
225 1 0.354478 0.112046 0.755996
226 2 0.258559 0.100173 0.741297
227 3 0.236292 0.136949 0.703567
228 3 0.215835 0.0796249 0.782584
229 2 0.417917 0.152742 0.716641
230 3 0.496696 0.156779 0.738107
231 3 0.386544 0.159944 0.676021
232 1 0.394536 0.0834008 0.814651
233 2 0.328693 0.052434 0.862404
234 4 0.368582 0.0313173 0.913385
235 4 0.238412 0.0326566 0.850108
236 2 0.499282 0.0743549 0.824067
237 4 0.522492 0.0261722 0.871101
238 4 0.563849 0.117256 0.790866
239 1 0.40567 0.363979 0.984919
240 2 0.500211 0.360915 0.00254464
241 3 0.51699 0.369997 0.0496305
242 3 0.53635 0.324384 0.96671
243 2 0.343593 0.405384 0.0234879
244 3 0.265817 0.398354 0.0103041
245 3 0.383161 0.430498 0.0611665
246 1 0.366561 0.32074 0.931345
247 2 0.433931 0.303911 0.88012
248 4 0.398801 0.2944 0.827644
249 4 0.525498 0.302099 0.891583
250 2 0.263896 0.304321 0.922639
251 4 0.235651 0.247922 0.880383
252 4 0.203246 0.339509 0.959006
253 1 0.141598 0.331668 0.735217
254 2 0.233555 0.35684 0.752423
255 3 0.249588 0.320327 0.795429
256 3 0.259355 0.422112 0.73414
257 2 0.0865246 0.261168 0.764119
258 3 0.0133537 0.258448 0.741301
259 3 0.11047 0.243742 0.807763
260 1 0.101268 0.381458 0.684315
261 2 0.167041 0.427482 0.640874
262 4 0.142698 0.426039 0.585801
263 4 0.255159 0.451101 0.657598
264 2 0.994407 0.37975 0.673585
265 4 0.965154 0.443582 0.63611
266 4 0.937573 0.320563 0.701599
267 1 0.119003 0.129547 0.499102
268 2 0.0245602 0.148646 0.48496
269 3 0.00901008 0.12783 0.442558
270 3 0.990573 0.180549 0.523812
271 2 0.179717 0.0803709 0.463648
272 3 0.243502 0.0687739 0.486279
273 3 0.152516 0.0667107 0.423282
274 1 0.153563 0.146834 0.560199
275 2 0.0848664 0.157556 0.610198
276 4 0.121018 0.158102 0.663706
277 4 0.994118 0.171003 0.597415
278 2 0.257458 0.163233 0.571281
279 4 0.273893 0.21703 0.615886
280 4 0.325095 0.12947 0.538523
281 1 0.852226 0.116031 0.750333
282 2 0.758767 0.143712 0.742782
283 3 0.744883 0.171319 0.701043
284 3 0.712207 0.12383 0.777757
285 2 0.916475 0.133218 0.703557
286 3 0.992282 0.112039 0.714556
287 3 0.875379 0.142033 0.662027
288 1 0.88328 0.0717485 0.805409
289 2 0.811986 0.0487019 0.853303
290 4 0.835997 0.0568669 0.908094
291 4 0.729969 0.0103543 0.83618
292 2 0.98721 0.0618784 0.818705
293 4 0.0124495 0.0313169 0.871731
294 4 0.0503913 0.0861885 0.779333
295 1 0.931069 0.343905 0.976824
296 2 0.0182012 0.392131 0.976643
297 3 0.0317212 0.4274 0.0164142
298 3 0.0464964 0.402265 0.933522
299 2 0.88401 0.333687 0.0316433
300 3 0.820551 0.291365 0.0263511
301 3 0.910304 0.381265 0.060565
302 1 0.89054 0.304441 0.922327
303 2 0.953045 0.297858 0.868382
304 4 0.910841 0.310684 0.817921
305 4 0.0401801 0.270728 0.877484
306 2 0.786016 0.282742 0.920539
307 4 0.749848 0.272927 0.868331
308 4 0.738839 0.274324 0.971409
309 1 0.65022 0.37695 0.742404
310 2 0.746036 0.407645 0.757817
311 3 0.775025 0.352287 0.779376
312 3 0.767302 0.449722 0.721386
313 2 0.598994 0.308947 0.777126
314 3 0.529956 0.300413 0.758915
315 3 0.626615 0.3084 0.820083
316 1 0.608319 0.409795 0.688729
317 2 0.664156 0.44795 0.635301
318 4 0.629502 0.453724 0.581543
319 4 0.751732 0.472187 0.646231
320 2 0.501993 0.403428 0.677466
321 4 0.471899 0.45416 0.632962
322 4 0.448567 0.350555 0.711753
323 1 0.607332 0.109001 0.503743
324 2 0.508102 0.0923247 0.497064
325 3 0.485515 0.0491606 0.46338
326 3 0.476928 0.114956 0.535116
327 2 0.66332 0.0779744 0.457094
328 3 0.740445 0.098124 0.465591
329 3 0.618044 0.0757447 0.417522
330 1 0.6463 0.15271 0.556121
331 2 0.581588 0.182947 0.605037
332 4 0.61448 0.183327 0.658177
333 4 0.502758 0.224634 0.589559
334 2 0.750055 0.171108 0.563337
335 4 0.777525 0.213964 0.611022
336 4 0.808626 0.150232 0.520652
337 1 0.355178 0.617038 0.755361
338 2 0.255847 0.620465 0.740669
339 3 0.25041 0.615258 0.693933
340 3 0.219458 0.575992 0.770944
341 2 0.419626 0.66066 0.715933
342 3 0.493249 0.643068 0.723093
343 3 0.382746 0.684933 0.680821
344 1 0.390488 0.572759 0.808218
345 2 0.320571 0.53157 0.855393
346 4 0.35937 0.519946 0.906363
347 4 0.231788 0.524072 0.840502
348 2 0.492652 0.564946 0.823617
349 4 0.524393 0.546173 0.877107
350 4 0.554307 0.587682 0.781923
351 1 0.399219 0.845819 0.000658129
352 2 0.497465 0.837466 0.0206091
353 3 0.503153 0.902257 0.0404292
354 3 0.542318 0.814781 0.983242
355 2 0.337417 0.886225 0.0413347
356 3 0.270694 0.90074 0.0191049
357 3 0.371748 0.923024 0.0729477
358 1 0.365451 0.816557 0.943627
359 2 0.434543 0.801907 0.894499
360 4 0.397801 0.784796 0.842666
361 4 0.525943 0.810333 0.905599
362 2 0.260485 0.794694 0.935568
363 4 0.235393 0.739745 0.893563
364 4 0.202303 0.825898 0.974937
365 1 0.157363 0.874764 0.755134
366 2 0.24518 0.83271 0.751572
367 3 0.267894 0.806135 0.79502
368 3 0.274895 0.832048 0.710217
369 2 0.111784 0.886263 0.80841
370 3 0.0410642 0.915716 0.800306
371 3 0.143895 0.85496 0.845182
372 1 0.115692 0.916617 0.699956
373 2 0.175131 0.929456 0.645501
374 4 0.134193 0.912632 0.593904
375 4 0.262505 0.957209 0.654156
376 2 0.0108364 0.922293 0.695289
377 4 0.977024 0.943533 0.64238
378 4 0.957292 0.903537 0.742845
379 1 0.0973041 0.642444 0.522469
380 2 0.000192137 0.656979 0.508761
381 3 0.980785 0.634227 0.467255
382 3 0.97465 0.718163 0.537148
383 2 0.157908 0.59372 0.485886
384 3 0.240982 0.617213 0.495482
385 3 0.121158 0.584716 0.444124
386 1 0.135868 0.687472 0.574475
387 2 0.0670907 0.712142 0.623523
388 4 0.101295 0.716708 0.676703
389 4 0.976959 0.72846 0.610657
390 2 0.240034 0.700321 0.585474
391 4 0.262601 0.736838 0.636598
392 4 0.299869 0.677832 0.54381
393 1 0.845683 0.622951 0.755558
394 2 0.748671 0.649011 0.751185
395 3 0.737128 0.664638 0.70636
396 3 0.708715 0.62893 0.788487
397 2 0.911115 0.635548 0.708579
398 3 0.989965 0.628098 0.722978
399 3 0.872586 0.674134 0.677268
400 1 0.876182 0.584977 0.812624
401 2 0.806487 0.57809 0.864684
402 4 0.846237 0.550085 0.913039
403 4 0.716172 0.591749 0.860534
404 2 0.974383 0.554416 0.819299
405 4 0.997751 0.524801 0.872588
406 4 0.0339692 0.551552 0.773669
407 1 0.895829 0.879873 0.0169032
408 2 0.994722 0.894454 0.0273029
409 3 0.00275135 0.876402 0.0708701
410 3 0.035357 0.876389 0.986637
411 2 0.83121 0.88592 0.0622592
412 3 0.75532 0.87139 0.051169
413 3 0.86107 0.907767 0.101583
414 1 0.865519 0.859695 0.955518
415 2 0.934363 0.841643 0.908283
416 4 0.900377 0.817572 0.856828
417 4 0.0278753 0.84774 0.916041
418 2 0.762594 0.846241 0.939162
419 4 0.733396 0.828059 0.885797
420 4 0.704391 0.845508 0.984618
421 1 0.653928 0.872476 0.742771
422 2 0.749762 0.895148 0.75564
423 3 0.773175 0.849498 0.788932
424 3 0.782355 0.938611 0.723357
425 2 0.603054 0.812313 0.781196
426 3 0.527932 0.811547 0.768095
427 3 0.642623 0.811005 0.821459
428 1 0.604701 0.904054 0.688892
429 2 0.664377 0.931021 0.636153
430 4 0.621296 0.942906 0.58453
431 4 0.754411 0.946817 0.643977
432 2 0.498527 0.91604 0.684273
433 4 0.46913 0.96853 0.63955
434 4 0.44877 0.883043 0.728749
435 1 0.598072 0.633211 0.498867
436 2 0.49834 0.637093 0.490008
437 3 0.482044 0.617833 0.446576
438 3 0.462862 0.654107 0.530042
439 2 0.660356 0.616131 0.452055
440 3 0.736362 0.641313 0.463557
441 3 0.627739 0.594308 0.414358
442 1 0.637415 0.663388 0.554658
443 2 0.577412 0.673024 0.609931
444 4 0.618727 0.67275 0.66119
445 4 0.485 0.677138 0.602173
446 2 0.74319 0.68065 0.56326
447 4 0.770792 0.690893 0.617949
448 4 0.805898 0.673873 0.521248
ITEM: TIMESTEP
2000
ITEM: NUMBER OF ATOMS
448
ITEM: BOX BOUNDS xy xz yz pp pp pp