LAMMPS data file via write_data, version 15 Apr 2020, timestep = 80000

448 atoms
4 atom types

2.5276311591661660e-02 1.3853923688408354e+01 xlo xhi
3.2666284654353461e-01 1.2948137153456663e+01 ylo yhi
-4.5848408849360034e-01 2.3138394446794241e+01 zlo zhi
-1.3719912573069233e+00 6.5589975724128413e-01 3.4192286372145273e+00 xy xz yz

Masses

1 12.0107
2 14.0067
3 1.00794
4 15.9994

Atoms # full

1 1 1 -1.4804361178010660e-02 4.9704397617641911e+00 2.4071874262882655e+00 5.1578965936567762e+00 0 0 0
2 1 2 9.8657118916854157e-03 3.6501608073608658e+00 2.8261628325664008e+00 4.8433598576579717e+00 0 0 0
3 1 3 1.3530998113820555e-01 3.2591564824472679e+00 2.2686692230427083e+00 4.0350884029750382e+00 0 0 0
4 1 3 1.5476400565445372e-01 3.1753813239711466e+00 3.0922561806851379e+00 5.7336558686077828e+00 0 0 0
5 1 2 1.4641717183422939e-02 5.7305704215364104e+00 1.7935152021217402e+00 4.1797095941050237e+00 0 0 0
6 1 3 1.5593514498225949e-01 6.6362152599293154e+00 1.3015373789561560e+00 4.6451313175747089e+00 0 0 0
7 1 3 1.3000496415064372e-01 5.0667044086635054e+00 1.3071086723752143e+00 3.5170797155504858e+00 0 0 0
8 1 1 3.0418539975885572e-02 5.5303040996111328e+00 2.6894712936361271e+00 6.4444268563674720e+00 0 0 0
9 1 2 2.3233440234881300e-01 4.7438989780306384e+00 3.2948360243072572e+00 7.5010969097034765e+00 0 0 0
10 1 4 -2.5589613314942944e-01 5.3421369160602037e+00 3.5956671888479592e+00 8.6232281471097334e+00 0 0 0
11 1 4 -2.7606713784693337e-01 3.5147440804786525e+00 3.6610404559449972e+00 7.2958287848741570e+00 0 0 0
12 1 2 2.4566520356141264e-01 6.9890044213461051e+00 2.3816669767828271e+00 6.7627155627643374e+00 0 0 0
13 1 4 -2.6881408500719828e-01 7.5084479672335362e+00 2.9888467992805037e+00 7.7344150644342839e+00 0 0 0
14 1 4 -2.7854209888732462e-01 7.6986929776672035e+00 1.7719077223875979e+00 5.8534876398504592e+00 0 0 0
15 1 1 3.2530358982381137e-03 4.7186954442773965e+00 6.9986749445485703e+00 1.2420166522256620e+01 0 0 0
16 1 2 1.7414580790027927e-02 6.0911276046027014e+00 6.8528540042550468e+00 1.2659210222154686e+01 0 0 0
17 1 3 1.5212876053179139e-01 6.4081452035745841e+00 6.7909676028758801e+00 1.3636624014180450e+01 0 0 0
18 1 3 1.5205590664851515e-01 6.5443156846655279e+00 6.6798790234672358e+00 1.1733297004210559e+01 0 0 0
19 1 2 2.0050853442721343e-02 3.9631138698754538e+00 7.2394736126243640e+00 1.3529832693610850e+01 0 0 0
20 1 3 1.5755864857703594e-01 2.8600412419511376e+00 7.3084892735596130e+00 1.3268028091866682e+01 0 0 0
21 1 3 1.4640204170187629e-01 4.4171110443791672e+00 7.2088154990275362e+00 1.4488021695302930e+01 0 0 0
22 1 1 3.1771703557060278e-02 4.1888826725946453e+00 6.8634057483782840e+00 1.1087637655070242e+01 0 0 0
23 1 2 2.3028854855671238e-01 5.0138206487638293e+00 6.6710214082589241e+00 9.9017670489242047e+00 0 0 0
24 1 4 -2.4273925737820984e-01 4.4777461788535673e+00 6.7551270197964888e+00 8.7175974003189332e+00 0 0 0
25 1 4 -2.9731805558653268e-01 6.2982176108861845e+00 6.4931600311624171e+00 1.0051853500913985e+01 0 0 0
26 1 2 2.3375030232214483e-01 2.7146061625686233e+00 6.9132708982437201e+00 1.0892279859920126e+01 0 0 0
27 1 4 -2.7167410269520642e-01 2.2439905109547564e+00 6.7347078045518751e+00 9.7109411742340424e+00 0 0 0
28 1 4 -2.8175910156254974e-01 1.9526109445647875e+00 7.0436216570621477e+00 1.1935492361390946e+01 0 0 0
29 1 1 -5.6613020758788102e-03 9.2819085888070285e-01 6.1014655054921780e+00 6.6766875925983644e+00 0 0 0
30 1 2 2.0598662208673301e-02 2.2774593911834646e+00 6.1308793800527672e+00 6.7764618569526442e+00 0 0 0
31 1 3 1.5133128869262863e-01 2.5997518626496863e+00 6.3546859199501764e+00 7.7559734370083131e+00 0 0 0
32 1 3 1.5533536902071157e-01 2.7601694405269583e+00 5.9378084973541361e+00 5.8182964380854498e+00 0 0 0
33 1 2 1.4943946256611027e-02 1.1042553759795493e-01 6.4413961059213776e+00 7.7463741012378602e+00 0 0 0
34 1 3 1.6286879284127226e-01 1.2841066354440743e+01 6.3129461705249428e+00 7.6447846571440721e+00 -1 0 0
35 1 3 1.4427071290801644e-01 5.7616365028857885e-01 6.5355100889637994e+00 8.6462915271645873e+00 0 0 0
36 1 1 2.7669936156836900e-02 3.0952958424387877e-01 5.7374532114437029e+00 5.4188572669209227e+00 0 0 0
37 1 2 2.3083807606622209e-01 1.1095510150099361e+00 5.3642525609680982e+00 4.2513558891330891e+00 0 0 0
38 1 4 -2.5072717962127972e-01 4.6005336021304866e-01 4.8743726023324543e+00 3.2515310323198525e+00 0 0 0
39 1 4 -2.9579056365630751e-01 2.4041565230176540e+00 5.3500065983954448e+00 4.3049672570313300e+00 0 0 0
40 1 2 2.2533419961161746e-01 1.2640045635937142e+01 5.7302542125565799e+00 5.3088369370544077e+00 -1 0 0
41 1 4 -2.7421899185673287e-01 1.2194267937573546e+01 5.4357020427519416e+00 4.1464315566014669e+00 0 0 0
42 1 4 -2.8588090088216372e-01 1.1910058376679896e+01 6.0907795895387782e+00 6.3117249273963658e+00 0 0 0
43 1 1 -9.8015584031162228e-03 1.9793601440480149e+00 5.0527252407391572e+00 2.2793170482193588e+01 0 0 -1
44 1 2 2.9840251188089501e-03 6.4403916762583524e-01 5.0456320271282138e+00 2.2546326353651665e+01 1 0 -1
45 1 3 1.4374166639353261e-01 1.4196552486852415e+01 5.0126536444349217e+00 2.1527639503495109e+01 0 0 0
46 1 3 1.5500833828644023e-01 1.3192687292885138e+01 1.7372605166435344e+00 -2.2094911757611391e-01 0 0 0
47 1 2 1.3612609175060592e-02 2.8162914174242082e+00 4.9075978993167091e+00 2.1695955846327962e+01 0 0 0
48 1 3 1.5595403267612964e-01 3.8311159941226176e+00 5.0602088364596653e+00 2.1946690869048140e+01 0 0 0
49 1 3 1.4731486383139883e-01 2.3499080056134698e+00 5.0012963879801449e+00 2.0775879068993213e+01 0 0 0
50 1 1 3.1341131612281650e-02 1.8951452053344218e+00 1.7516254864377800e+00 5.2523915417092071e-01 0 0 0
51 1 2 2.3135339173080829e-01 1.0142735888555241e+00 1.9384796284843646e+00 1.6751004172425330e+00 0 0 0
52 1 4 -2.5633951196242510e-01 1.5290017663641566e+00 2.1833394245659412e+00 2.8432544165437839e+00 0 0 0
53 1 4 -2.7292587764702236e-01 1.3547097596665322e+01 1.8492807254311951e+00 1.5627587066573265e+00 0 0 0
54 1 2 2.2974323263436192e-01 3.3605869225333094e+00 1.6696587065799766e+00 7.2414128729815586e-01 0 0 0
55 1 4 -2.7027057177806152e-01 3.7042904556576302e+00 1.6493195340637530e+00 1.9818348012257081e+00 0 0 0
56 1 4 -2.8662481839677412e-01 4.1483063434031999e+00 1.4669527245969569e+00 -2.6799029445251943e-01 0 0 0
57 1 1 -9.0728001206064664e-03 1.2115559507205031e+01 2.4583351654853596e+00 5.2567066927973434e+00 0 0 0
58 1 2 1.1343206230159584e-02 1.0798115551272383e+01 2.3803742078287740e+00 4.9730212290679301e+00 0 0 0
59 1 3 1.4710652926241827e-01 1.0672278909037709e+01 2.2763781033394483e+00 3.9051913042082465e+00 0 0 0
60 1 3 1.5507814426688554e-01 1.0140190520503760e+01 2.6723833472152472e+00 5.7239524807868403e+00 0 0 0
61 1 2 2.0025139369425373e-02 1.3020033212638461e+01 2.3033437705434281e+00 4.2051886059354660e+00 0 0 0
62 1 3 1.5631493001549357e-01 2.0568621496153708e-01 2.5231557287773656e+00 4.5651316989415029e+00 1 0 0
63 1 3 1.5018078690046638e-01 1.2618929337695734e+01 2.0300032235623435e+00 3.3035703374632259e+00 0 0 0
64 1 1 3.3287008393171946e-02 1.2640089315939811e+01 2.7484705207060856e+00 6.5858144983017892e+00 0 0 0
65 1 2 2.3775073856632656e-01 1.1665152300207826e+01 2.9963076996426432e+00 7.6886768456836201e+00 0 0 0
66 1 4 -2.6152004845391658e-01 1.2179426918534128e+01 3.1125954354675409e+00 8.8490290442313100e+00 0 0 0
67 1 4 -2.9755455338880765e-01 1.0433921008058833e+01 3.0610674329186915e+00 7.3387347679209478e+00 0 0 0
68 1 2 2.3044624213001888e-01 2.5356226082345190e-01 2.7774221559416743e+00 6.8854521694077917e+00 1 0 0
69 1 4 -2.7767958172479634e-01 5.3135334497640874e-01 2.8727482451408921e+00 8.1518135536321044e+00 0 0 0
70 1 4 -2.9959080285055661e-01 1.1278758921537222e+00 2.6334746394473592e+00 5.9516113670934754e+00 0 0 0
71 1 1 -6.4297054385264972e-03 1.1597730945891714e+01 6.8982917640926260e+00 1.2528425936689622e+01 0 0 0
72 1 2 1.6277838487180358e-02 1.2984476648398156e+01 7.1083718212302776e+00 1.2752420095014674e+01 -1 0 0
73 1 3 1.4278614398356360e-01 1.3101548810778025e+01 7.4438717152558596e+00 1.3743468290773530e+01 -1 0 0
74 1 3 1.5171435962780605e-01 1.3430823445104801e+01 7.5305951945158327e+00 1.1898798199369955e+01 -1 0 0
75 1 2 1.1967841095429553e-02 1.0805533915258478e+01 6.7208720156739439e+00 1.3676147308646048e+01 0 0 0
76 1 3 1.5583820216967753e-01 9.7368181614861342e+00 6.7775728052342261e+00 1.3501993079152275e+01 0 0 0
77 1 3 1.3537455926444797e-01 1.1487128319170862e+01 6.5501012175851336e+00 1.4471919945403743e+01 0 0 0
78 1 1 3.3946404227570788e-02 1.1008656814056803e+01 6.8310505970464455e+00 1.1234789772985112e+01 0 0 0
79 1 2 2.3161105499368542e-01 1.1906719123616918e+01 6.7409891619864393e+00 1.0073528265016595e+01 0 0 0
80 1 4 -2.6088964989403668e-01 1.1415075617940660e+01 6.3946267235858443e+00 8.9371722003197043e+00 0 0 0
81 1 4 -2.9436034219187523e-01 1.3158847316975471e+01 7.0506822923440300e+00 1.0271300000540620e+01 -1 0 0
82 1 2 2.2952888968239368e-01 9.5197342371230054e+00 6.6864213180931440e+00 1.1052930326833778e+01 0 0 0
83 1 4 -2.7661912703242580e-01 9.0809702161108579e+00 6.4701754089087959e+00 9.8781731752509874e+00 0 0 0
84 1 4 -2.8628533982717930e-01 8.7369477540407487e+00 6.6335969739049343e+00 1.2068700428106101e+01 0 0 0
85 1 1 -2.5168205336464702e-03 7.8799653483534939e+00 5.7192488897393794e+00 6.6594382460262906e+00 0 0 0
86 1 2 1.1531938593869549e-02 9.2135536715369799e+00 5.4884174614679946e+00 6.8916016020477011e+00 0 0 0
87 1 3 1.3994578820621889e-01 9.5609162231755516e+00 5.7960610071840097e+00 7.8273264928825768e+00 0 0 0
88 1 3 1.5166668226278796e-01 9.7084531179855897e+00 4.9470243406281469e+00 6.1414010851423528e+00 0 0 0
89 1 2 2.6018411846346005e-02 7.0417848488545651e+00 6.1628575278283080e+00 7.7085565719267972e+00 0 0 0
90 1 3 1.6166044220697745e-01 6.0098857822701666e+00 5.9013495455691451e+00 7.4924005731685881e+00 0 0 0
91 1 3 1.4510568033994117e-01 7.5275136486828158e+00 6.1470710794123331e+00 8.6137274378811810e+00 0 0 0
92 1 1 3.0225308735475614e-02 7.3076857450847621e+00 5.2849315871800195e+00 5.4084251188801460e+00 0 0 0
93 1 2 2.4116189798072751e-01 8.1091040008158242e+00 4.7294265101643278e+00 4.2523464237392767e+00 0 0 0
94 1 4 -2.3785757759270729e-01 7.5295083100735676e+00 4.4418188046849796e+00 3.1577553845924600e+00 0 0 0
95 1 4 -2.8526044420933927e-01 9.3704206908009571e+00 4.5950090525959624e+00 4.4303293570824493e+00 0 0 0
96 1 2 2.2620823880756202e-01 5.8807173471902372e+00 5.3625523220039319e+00 5.1550417631827381e+00 0 0 0
97 1 4 -2.7638838644311914e-01 5.4790915013695427e+00 5.2745122755507223e+00 3.9173394081870754e+00 0 0 0
98 1 4 -2.7285386456435212e-01 5.0115878585166858e+00 5.5964723099877336e+00 6.1010997417957258e+00 0 0 0
99 1 1 -1.1364706545604560e-02 9.0454126903396652e+00 5.2410167921609911e+00 2.2971545132347771e+01 0 0 -1
100 1 2 6.7389266148545901e-04 7.6604732297510258e+00 5.3153808552702513e+00 2.2834403523207406e+01 0 0 -1
101 1 3 1.4204997798962310e-01 7.3327044959549728e+00 5.2308704845191354e+00 2.1898595629950755e+01 0 0 0
102 1 3 1.4570319190640513e-01 6.6053050894014804e+00 2.2352480395076393e+00 2.4034277295290918e-01 0 0 0
103 1 2 7.7234578136712792e-03 9.8571809152209884e+00 4.9199033881913667e+00 2.1872927867295175e+01 0 0 0
104 1 3 1.4988688056724861e-01 1.0870319205578632e+01 5.2229717664629618e+00 2.2011439064086105e+01 0 0 0
105 1 3 1.3982685698490868e-01 9.2043366744760053e+00 5.0284645220356037e+00 2.1046947252233736e+01 0 0 0
106 1 1 2.8938087454314414e-02 9.0043248644628537e+00 1.9819563261529214e+00 6.4808821266520411e-01 0 0 0
107 1 2 2.4509547911572135e-01 8.2412867779594770e+00 2.1806232547412758e+00 1.9055964676509261e+00 0 0 0
108 1 4 -2.4284849155220478e-01 8.9083573410637111e+00 2.0464507908774330e+00 2.9851280263206315e+00 0 0 0
109 1 4 -2.8469487066865257e-01 6.9461290073733402e+00 2.2731132190475103e+00 1.8035877769301734e+00 0 0 0
110 1 2 2.2987530053302754e-01 1.0514612782158236e+01 1.9650673421928020e+00 6.9860340199237747e-01 0 0 0
111 1 4 -2.5736904023422447e-01 1.0991250884915257e+01 2.1073430666866617e+00 1.8960881435812662e+00 0 0 0
112 1 4 -2.9761255726264785e-01 1.1285446972311039e+01 1.8861076843454221e+00 -3.2276649484959719e-01 0 0 0
113 1 1 -7.6623759773259657e-03 4.8136257297883622e+00 8.5374366656919012e+00 4.2103695071769369e+00 0 0 0
114 1 2 8.9979381411455263e-03 3.4335546691362970e+00 8.5086018906674994e+00 4.0618015355086543e+00 0 0 0
115 1 3 1.4583152079142850e-01 3.1142925263012788e+00 8.5439308759282557e+00 3.0437696403174339e+00 0 0 0
116 1 3 1.5632297591989169e-01 2.7970099907051553e+00 8.8315573071516837e+00 4.8866677959803209e+00 0 0 0
117 1 2 1.1541587099667718e-02 5.6449895143869568e+00 8.4051146859997576e+00 3.1404444375825875e+00 0 0 0
118 1 3 1.5378374832143343e-01 6.7451363672931395e+00 8.5480441737239250e+00 3.5536021944771496e+00 0 0 0
119 1 3 1.4076899521627056e-01 5.1056775096189586e+00 8.2673461257568412e+00 2.2658554926662640e+00 0 0 0
120 1 1 3.0201017854960779e-02 5.2850226487758221e+00 8.7179028634414522e+00 5.5620559740484552e+00 0 0 0
121 1 2 2.2823521829505744e-01 4.3896170845029578e+00 9.1040028877948131e+00 6.6634542921570015e+00 0 0 0
122 1 4 -2.4514912758666257e-01 4.9706932748603077e+00 9.3760805997780974e+00 7.7665083639271071e+00 0 0 0
123 1 4 -2.9866570995040487e-01 3.0910918249702819e+00 9.1104677313211102e+00 6.4778292436547025e+00 0 0 0
124 1 2 2.3379453375140599e-01 6.7380293859226645e+00 8.7168663821773400e+00 5.9174298573126567e+00 0 0 0
125 1 4 -2.7679682710733977e-01 7.1133361829797144e+00 8.7258846746522849e+00 7.1396698634830651e+00 0 0 0
126 1 4 -2.9349465689801046e-01 7.5942654391889359e+00 8.5611740377525223e+00 4.9565029822543716e+00 0 0 0
127 1 1 -1.2844724513963773e-02 4.6568020433553388e+00 1.3237926687251381e+01 1.1648595397061325e+01 0 0 0
128 1 2 -3.0599796404343418e-03 5.9919596499380896e+00 1.3278976695381223e+01 1.1918543895616596e+01 0 0 0
129 1 3 1.3752082003791233e-01 6.1982878221170017e+00 1.3495194614720916e+01 1.2942243372945279e+01 0 0 0
130 1 3 1.4953032497646510e-01 6.5195149531053067e+00 1.2847065348829402e+01 1.1080031721320866e+01 0 0 0
131 1 2 9.0312391152671014e-03 3.7409424159510860e+00 1.3505571581889303e+01 1.2703821657243695e+01 0 0 0
132 1 3 1.5495017432694286e-01 2.7351431918979872e+00 1.3487017450416218e+01 1.2465670216137724e+01 0 0 0
133 1 3 1.4040358239522785e-01 4.2798053527583990e+00 1.3742766357552851e+01 1.3586972859554820e+01 0 0 0
134 1 1 3.0876792494601561e-02 4.1716249473310727e+00 1.3025544729756138e+01 1.0331004834072049e+01 0 0 0
135 1 2 2.3103249036497359e-01 5.1460878967894246e+00 1.2761667438277708e+01 9.2013581304931513e+00 0 0 0
136 1 4 -2.6542070115325062e-01 4.5883660704065097e+00 1.2708715499601661e+01 8.0366633143082034e+00 0 0 0
137 1 4 -2.8989044059906055e-01 6.4004564005391700e+00 1.2805712835357376e+01 9.3956459362206051e+00 0 0 0
138 1 2 2.2795779526272736e-01 2.7198144069803498e+00 1.2957713940796339e+01 1.0085017090681685e+01 0 0 0
139 1 4 -2.8567723988574345e-01 2.3825591526336334e+00 1.2786149939364398e+01 8.8419817532319840e+00 0 0 0
140 1 4 -2.9302673300549126e-01 1.8876647781248239e+00 1.3244864889143253e+01 1.1020079719332303e+01 0 0 0
141 1 1 -1.2306259291548549e-02 1.3067824366933727e+00 1.2013303841875699e+01 5.7589878760825597e+00 0 0 0
142 1 2 -1.3737303820662849e-03 2.6302091033973860e+00 1.1952707902707655e+01 5.9524309092294185e+00 0 0 0
143 1 3 1.3654403160512982e-01 2.8627876764108375e+00 1.2216966838351558e+01 6.9274643409724721e+00 0 0 0
144 1 3 1.4911589033419653e-01 3.0789192880962784e+00 1.1501681615323744e+01 4.9811620737031514e+00 0 0 0
145 1 2 6.3531330748317835e-03 4.9305314984732557e-01 1.2538561405549656e+01 6.7810152994422292e+00 0 0 0
146 1 3 1.5271053052790567e-01 -5.3435163540592145e-01 1.2603968775171271e+01 6.5806598984639599e+00 0 0 0
147 1 3 1.4170166629001693e-01 1.1150414152757273e+00 1.2934958491116777e+01 7.6130680829285033e+00 0 0 0
148 1 1 3.0916981712619959e-02 6.2359291360819424e-01 1.1726611664198392e+01 4.5042668697639625e+00 0 0 0
149 1 2 2.3491322729372616e-01 1.3944202879704122e+00 1.1400804913198900e+01 3.2961767977619556e+00 0 0 0
150 1 4 -2.4942232303466916e-01 7.6107277289941033e-01 1.1320986862669443e+01 2.1832291067546667e+00 0 0 0
151 1 4 -3.0615164587482191e-01 2.6727392075371599e+00 1.1214890096248620e+01 3.4147312450133014e+00 0 0 0
152 1 2 2.3433610772461827e-01 -8.4715083688160508e-01 1.1852858225351687e+01 4.3676174337562399e+00 0 0 0
153 1 4 -2.5257267107740550e-01 1.2513971633116297e+01 1.1536474148343869e+01 3.1831830616814618e+00 0 0 0
154 1 4 -2.8482470354216755e-01 1.2230341078736682e+01 1.2290977391906109e+01 5.2997806043388707e+00 0 0 0
155 1 1 -9.0081251592753417e-03 1.8866707690948603e+00 1.1532351767750397e+01 2.1813573410261945e+01 0 0 -1
156 1 2 7.6781357614048029e-03 5.5908918468495528e-01 1.1789152403100202e+01 2.1497514650586730e+01 1 0 -1
157 1 3 1.3984855877155100e-01 4.6495956624421009e-01 1.1602916741627679e+01 2.0517269199352569e+01 1 0 0
158 1 3 1.4466834656959887e-01 -3.0994834636637991e-02 1.2068960638114522e+01 2.2372917374452804e+01 1 0 -1
159 1 2 7.2375393781866290e-03 2.7558535244062319e+00 1.1172424377595338e+01 2.0831518384103802e+01 0 0 0
160 1 3 1.5661035435613552e-01 3.7438345151220087e+00 1.0962300656410797e+01 2.1213292265270397e+01 0 0 0
161 1 3 1.4367084612187728e-01 2.5436965354201710e+00 1.1376870663943020e+01 1.9868855888120493e+01 0 0 0
162 1 1 3.4853142495401751e-02 1.6782403232922538e+00 8.0796715317698506e+00 -3.9092608748966989e-01 0 0 0
163 1 2 2.3790514878947294e-01 7.9560624995450702e-01 8.0643448314162534e+00 8.0058108881663004e-01 0 0 0
164 1 4 -2.5442618331489597e-01 1.3745093031867572e+00 7.7574930148260908e+00 1.9226457982717515e+00 0 0 0
165 1 4 -2.9318162355779093e-01 -4.6332378075708391e-01 8.2218096912483816e+00 6.2322807290847448e-01 1 0 0
166 1 2 2.3082814090274753e-01 3.1218795882237926e+00 8.2118455106966159e+00 -1.4294580274849716e-01 0 0 0
167 1 4 -2.6987448228475552e-01 3.4685606958535988e+00 8.6019444694218130e+00 1.0464012135926426e+00 0 0 0
168 1 4 -2.7362442007294790e-01 4.6598470504324299e+00 1.1493677328673368e+01 2.2524881682071012e+01 0 0 -1
169 1 1 6.3734964516199213e-04 1.1681460948573328e+01 8.5610211259206004e+00 4.2175720427080128e+00 0 0 0
170 1 2 4.2988937954292622e-03 1.0327600198578780e+01 8.6344591172457825e+00 3.9128063559274704e+00 0 0 0
171 1 3 1.3421279454084686e-01 1.0126014244529321e+01 8.3340064994157430e+00 2.9491538411378793e+00 0 0 0
172 1 3 1.5636524825848336e-01 9.5852840244938289e+00 8.7987426837797553e+00 4.7107099217656625e+00 0 0 0
173 1 2 5.5530200590454201e-03 1.2478426988623104e+01 8.1991653956374932e+00 3.1485612994129943e+00 0 0 0
174 1 3 1.5417999927167855e-01 -2.9411093609973138e-01 8.2097570839294569e+00 3.3108758449689963e+00 1 0 0
175 1 3 1.3544857786639702e-01 1.1994844760357958e+01 8.1792864255925579e+00 2.2458124278456455e+00 0 0 0
176 1 1 3.9595628095956487e-02 1.2298935673238974e+01 8.9088683155164858e+00 5.4544927262812228e+00 0 0 0
177 1 2 2.3644524381742582e-01 1.1356401807329869e+01 9.1587127560891801e+00 6.5730907479023237e+00 0 0 0
178 1 4 -2.4225019522889485e-01 1.1955089505500242e+01 9.5338536702797789e+00 7.6587155180385693e+00 0 0 0
179 1 4 -2.8670499162657370e-01 1.0093874852677091e+01 9.0734715594131004e+00 6.3707669512995011e+00 0 0 0
180 1 2 2.3071507305720912e-01 -4.0334317029261380e-02 8.9412126765638646e+00 5.6598683732442359e+00 1 0 0
181 1 4 -2.7125621316955628e-01 3.5345049238052589e-01 9.2292446092977798e+00 6.8576580522511303e+00 0 0 0
182 1 4 -2.8975573771193069e-01 7.3314328366903725e-01 8.6853669827462525e+00 4.6621484091618681e+00 0 0 0
183 1 1 -1.7064737893073029e-02 1.1664072666798040e+01 1.3214149135692363e+01 1.1717866853868873e+01 0 0 0
184 1 2 2.3393676731922539e-03 -7.7884127545140980e-01 1.3231172688487145e+01 1.1945765081641527e+01 0 0 0
185 1 3 1.3380046640794643e-01 -6.8725955523657056e-01 1.3752012002109968e+01 1.2834978183915535e+01 0 0 0
186 1 3 1.5138421388186826e-01 -2.2723532377818606e-01 1.3181317431914636e+01 1.1031474537485146e+01 0 0 0
187 1 2 9.0133772773286006e-03 1.0853346094759965e+01 1.3359664354221934e+01 1.2844886904418436e+01 0 0 0
188 1 3 1.5572323139811994e-01 9.7713768034566186e+00 1.3253427630331094e+01 1.2531611203769200e+01 0 0 0
189 1 3 1.3999925462221197e-01 1.1394253659614090e+01 1.3243682276847974e+01 1.3711026815880679e+01 0 0 0
190 1 1 3.1014500093600489e-02 1.1026362042389149e+01 1.3012482477964404e+01 1.0430422047730067e+01 0 0 0
191 1 2 2.3879638306305306e-01 1.1962211002156801e+01 1.2704452663383792e+01 9.2731703364015878e+00 0 0 0
192 1 4 -2.4734901981648516e-01 1.1366927962648548e+01 1.2297729801144900e+01 8.2073119429790768e+00 0 0 0
193 1 4 -2.8296791098821789e-01 -5.9911798789027104e-01 1.2713563691170249e+01 9.4423895281871459e+00 0 0 0
194 1 2 2.2444422727409347e-01 9.5986287058298423e+00 1.3061630368568469e+01 1.0275029040048976e+01 0 0 0
195 1 4 -2.5960944679408993e-01 9.1910868587660470e+00 1.2980662493428362e+01 9.0150268371064133e+00 0 0 0
196 1 4 -2.9321121653746712e-01 8.7874407866574575e+00 1.3148898651822602e+01 1.1272833771063873e+01 0 0 0
197 1 1 -7.2632549925098419e-03 8.0700498897757633e+00 1.1959030784350501e+01 5.8926646881778728e+00 0 0 0
198 1 2 9.5458964659283184e-03 9.4570474996357525e+00 1.1989246510598205e+01 6.1034843222516848e+00 0 0 0
199 1 3 1.4092174316653419e-01 9.6685212773463363e+00 1.2221203932542451e+01 7.0664536623723153e+00 0 0 0
200 1 3 1.4816741168737224e-01 9.9607451146834212e+00 1.2289050762836434e+01 5.2263158655732784e+00 0 0 0
201 1 2 1.3326165939412861e-02 7.2361833137145348e+00 1.1980547955829200e+01 6.9951743169912142e+00 0 0 0
202 1 3 1.5944159827818724e-01 6.1968625722545942e+00 1.2064270996370563e+01 6.7923309950039066e+00 0 0 0
203 1 3 1.4272024549011228e-01 7.7566555067255747e+00 1.2348785396344599e+01 7.8146388756296439e+00 0 0 0
204 1 1 3.7768508258456186e-02 7.5815956916231597e+00 1.1920121114780995e+01 4.5512508680695634e+00 0 0 0
205 1 2 2.3192115448727790e-01 8.4906282361348655e+00 1.1854688752845304e+01 3.3813886984053667e+00 0 0 0
206 1 4 -2.6199993705752572e-01 7.9464651386531280e+00 1.1647170430332800e+01 2.2218079706565845e+00 0 0 0
207 1 4 -2.8998428116261032e-01 9.7559179129524480e+00 1.1905286138128034e+01 3.5526157390395383e+00 0 0 0
208 1 2 2.2918591692772133e-01 6.1056403156296151e+00 1.1921473829505709e+01 4.3263618811329358e+00 0 0 0
209 1 4 -2.7835139063901593e-01 5.7271038339122411e+00 1.1789812307505606e+01 3.0996413541279804e+00 0 0 0
210 1 4 -2.9963073461447365e-01 5.2823556956338420e+00 1.1897904001244726e+01 5.3222931928103518e+00 0 0 0
211 1 1 -7.4956638183372171e-03 8.8358991323473859e+00 1.1728249797678515e+01 2.1730318369516773e+01 0 0 -1
212 1 2 1.4955303437271337e-02 7.4863425092298064e+00 1.1895535056859002e+01 2.1478285486687923e+01 0 0 -1
213 1 3 1.4363473012921935e-01 7.3296218686128123e+00 1.1783052536512672e+01 2.0496447028035931e+01 0 0 0
214 1 3 1.5484679351269667e-01 6.9252701675388142e+00 1.2011860371794809e+01 2.2446817185971682e+01 0 0 -1
215 1 2 8.7858137189119057e-03 9.7330730352203592e+00 1.1505724739699646e+01 2.0670654605363353e+01 0 0 0
216 1 3 1.5796178224866292e-01 1.0727730956542329e+01 1.1290418576464889e+01 2.1001473823331558e+01 0 0 0
217 1 3 1.3348912568702850e-01 9.2895265849852109e+00 1.1508530337095928e+01 1.9768647454270294e+01 0 0 0
218 1 1 3.3365966358311620e-02 9.2660041012234249e+00 1.1724884746320969e+01 2.3089415559635754e+01 0 0 -1
219 1 2 2.3238836150878828e-01 7.6439747036042327e+00 8.1707977368343343e+00 6.2833665887435930e-01 0 0 0
220 1 4 -2.5987769967372942e-01 8.1016053423312915e+00 7.9828295689856379e+00 1.8114219936621176e+00 0 0 0
221 1 4 -2.7903540230269103e-01 6.3790235806197906e+00 8.1433892164817934e+00 4.1969968384103185e-01 0 0 0
222 1 2 2.2992203976175343e-01 1.0041423462073833e+01 8.4972138283544574e+00 -1.9479589842380302e-01 0 0 0
223 1 4 -2.8163946963055925e-01 1.0383569843189084e+01 8.8106991760816307e+00 1.0056383965466340e+00 0 0 0
224 1 4 -2.9216255271937680e-01 1.1477031638437364e+01 1.1774103027363893e+01 2.2367496350105121e+01 0 0 -1
225 1 1 -8.2494808921868262e-03 5.2761254656934016e+00 4.6937473506400078e+00 1.7053447546745495e+01 0 0 0
226 1 2 -3.4182609764469088e-03 3.9416364380798816e+00 4.7222761466855996e+00 1.6747355771033881e+01 0 0 0
227 1 3 1.4083587652541363e-01 3.7123743873370989e+00 4.5731276557138960e+00 1.5679834894452105e+01 0 0 0
228 1 3 1.4877433224397882e-01 3.3271793352075032e+00 5.0431408441113312e+00 1.7552172664710945e+01 0 0 0
229 1 2 1.0742957788651183e-02 6.1112468515562970e+00 4.4798639742175581e+00 1.5995299691661915e+01 0 0 0
230 1 3 1.5968202687755798e-01 7.2275135557206038e+00 4.3603043798859140e+00 1.6351968368928532e+01 0 0 0
231 1 3 1.4321494098157558e-01 5.6985420084708513e+00 4.2195321530244918e+00 1.5061799357986153e+01 0 0 0
232 1 1 3.0773016657489983e-02 5.8077115487235265e+00 4.9255377691015738e+00 1.8397683620185170e+01 0 0 0
233 1 2 2.2729559159032933e-01 4.8830141374592877e+00 5.1453581893339493e+00 1.9518035913612408e+01 0 0 0
234 1 4 -2.5345334782266837e-01 5.4352223304681200e+00 5.3299491350609163e+00 2.0659307145756543e+01 0 0 0
235 1 4 -2.9610980741318832e-01 3.5913396313838559e+00 5.2183122493214515e+00 1.9301738246583525e+01 0 0 0
236 1 2 2.3083964542703486e-01 7.2401098042862824e+00 4.7890272079230805e+00 1.8679060929736011e+01 0 0 0
237 1 4 -2.6741363460406897e-01 7.6502171652164188e+00 4.9937521498782509e+00 1.9883175889342347e+01 0 0 0
238 1 4 -2.9373453835875840e-01 8.0530466205072369e+00 4.4530505638466806e+00 1.7705316962566599e+01 0 0 0
239 1 1 -1.2197825873179191e-02 4.1269277165691154e+00 4.8879720339863004e+00 8.7362404959674378e-01 0 0 1
240 1 2 1.0477664637898003e-02 5.4504979961042244e+00 4.4834498825359352e+00 1.0610723172849517e+00 0 0 1
241 1 3 1.5107463239111596e-01 5.7774835653361007e+00 4.5800960712241059e+00 2.0738573276868677e+00 0 0 0
242 1 3 1.4820304988980798e-01 5.8349579253030921e+00 4.5281175712289246e+00 -2.6120559036505453e-03 0 0 1
243 1 2 1.3919317295673410e-02 3.4035740880505325e+00 5.2180992297336042e+00 2.0280662994785628e+00 0 0 0
244 1 3 1.5884445541049413e-01 2.4144381639698285e+00 5.4048899271003359e+00 1.8831263354674279e+00 0 0 0
245 1 3 1.4082160636190430e-01 4.0439692338654325e+00 5.2885305081617870e+00 2.8024163099713522e+00 0 0 0
246 1 1 2.7098955047006549e-02 3.5619789859224489e+00 4.9640321504750382e+00 -4.3207758432950577e-01 0 0 1
247 1 2 2.3546300376019721e-01 5.0700689545663247e+00 8.4320888647075360e+00 2.1937116090383704e+01 0 0 0
248 1 4 -2.5914733079784197e-01 4.5033451789051409e+00 8.7820798723728331e+00 2.0844149254575044e+01 0 0 0
249 1 4 -2.7126505829810915e-01 6.3571242175007860e+00 8.3172306589429930e+00 2.1987727255606998e+01 0 0 0
250 1 2 2.2860503214491107e-01 2.7433516341721909e+00 8.5688793749805647e+00 2.3014959155286739e+01 0 0 0
251 1 4 -2.7486823495662865e-01 2.2394405533283375e+00 8.3713438319153859e+00 2.1841066553901427e+01 0 0 0
252 1 4 -2.8148414485223860e-01 1.3933965349788668e+00 5.3986042079292389e+00 4.6981641169145938e-01 0 0 1
253 1 1 -1.3547150444647993e-02 1.1606518729167734e+00 8.3077428548244363e+00 1.8439443360406607e+01 0 0 0
254 1 2 5.4936324468193506e-03 2.5443059287220220e+00 8.4241551261096212e+00 1.8688638868313859e+01 0 0 0
255 1 3 1.3676908822019473e-01 2.7419036363176477e+00 8.4807570737404347e+00 1.9716478912929880e+01 0 0 0
256 1 3 1.5051049207644898e-01 3.0397107521116808e+00 8.4635335837353232e+00 1.7772622770209267e+01 0 0 0
257 1 2 1.8363213778221553e-02 3.4198125472198454e-01 8.3355885327873018e+00 1.9526438844951180e+01 0 0 0
258 1 3 1.6096423422432082e-01 1.3143925251468552e+01 8.4851892283784700e+00 1.9262168952665775e+01 -1 0 0
259 1 3 1.4612653379928178e-01 8.5217782492458705e-01 8.3478864512217896e+00 2.0430441150547672e+01 0 0 0
260 1 1 2.6975160426022052e-02 6.5295705491537381e-01 8.0744996341415618e+00 1.7109717700480438e+01 0 0 0
261 1 2 2.2991200243932639e-01 1.4896726826585664e+00 8.2556930582079318e+00 1.5917525348840806e+01 0 0 0
262 1 4 -2.5580720369438509e-01 8.7199947852956938e-01 8.2067372611006952e+00 1.4785897406211774e+01 0 0 0
263 1 4 -2.7529015837917831e-01 2.7536809344041058e+00 8.5814028558828603e+00 1.5986575694151520e+01 0 0 0
264 1 2 2.2916410858144876e-01 1.3046675172860052e+01 7.6729587649832407e+00 1.6949434965022647e+01 -1 0 0
265 1 4 -2.7788341579214904e-01 1.2713329386620179e+01 7.2882123416606692e+00 1.5759855086577753e+01 0 0 0
266 1 4 -2.7656840233108271e-01 1.2218471803858586e+01 7.8239503572820537e+00 1.7917180800313304e+01 0 0 0
267 1 1 -1.0796233559876113e-02 1.6547816820021171e+00 3.7502777194206693e+00 1.1092034888660264e+01 0 0 0
268 1 2 2.2487642055221760e-03 2.7744792661565354e-01 3.5512579216317666e+00 1.0893541528134456e+01 1 0 0
269 1 3 1.3632363618080426e-01 1.3968577650977204e+01 2.9723540282554741e+00 1.0057869474188310e+01 0 0 0
270 1 3 1.4876536896099546e-01 1.3577977705425223e+01 3.5707330974614226e+00 1.1844260880827129e+01 0 0 0
271 1 2 7.8170330592004927e-03 2.4937347331839033e+00 3.5580909337429736e+00 1.0012346315889493e+01 0 0 0
272 1 3 1.5334866314035620e-01 3.5403377713536250e+00 3.6646605641438068e+00 1.0203992823489276e+01 0 0 0
273 1 3 1.4079812170896425e-01 1.8761999017672717e+00 3.2011029945762575e+00 9.2335458611039503e+00 0 0 0
274 1 1 3.2329107331942671e-02 2.2366585584366696e+00 3.9526978342165142e+00 1.2378072659622429e+01 0 0 0
275 1 2 2.3283756594130164e-01 1.4065323202929965e+00 4.3835318340409035e+00 1.3522380787441382e+01 0 0 0
276 1 4 -2.6050030980194033e-01 1.9931985344187366e+00 4.7389730478718519e+00 1.4613515921437173e+01 0 0 0
277 1 4 -2.8797595407083959e-01 1.3940754168937827e+01 4.3260035940441224e+00 1.3372087476124666e+01 0 0 0
278 1 2 2.3504641419748620e-01 3.7316213983005522e+00 3.9596151297929896e+00 1.2536231824833113e+01 0 0 0