ITEM: TIMESTEP
0
ITEM: NUMBER OF ATOMS
448
ITEM: BOX BOUNDS xy xz yz pp pp pp
-2.4186686450000000e-01 1.3879200000000001e+01 8.1284706647000001e-16
0.0000000000000000e+00 1.3274800000000003e+01 -2.4186686450000000e-01
0.0000000000000000e+00 2.2679910358299999e+01 1.4036330231000001e-15
ITEM: ATOMS id type xs ys zs
1 1 0.343149 0.121085 0.263219
2 2 0.244839 0.126102 0.254574
3 3 0.22532 0.154392 0.213886
4 3 0.202395 0.0991568 0.287858
5 2 0.403261 0.1507 0.218655
6 3 0.477377 0.146643 0.228785
7 3 0.36749 0.173958 0.181188
8 1 0.382518 0.0855402 0.318564
9 2 0.318105 0.0639363 0.369268
10 4 0.350514 0.0822807 0.421641
11 4 0.233248 0.0277699 0.359
12 2 0.487104 0.072309 0.327855
13 4 0.512901 0.0303165 0.376825
14 4 0.546362 0.103521 0.288205
15 1 0.406851 0.371085 0.486781
16 2 0.505161 0.376102 0.495426
17 3 0.52468 0.404392 0.536114
18 3 0.547605 0.349157 0.462142
19 2 0.346739 0.4007 0.531345
20 3 0.272623 0.396643 0.521215
21 3 0.38251 0.423958 0.568812
22 1 0.367482 0.33554 0.431436
23 2 0.431895 0.313936 0.380732
24 4 0.399486 0.332281 0.328359
25 4 0.516752 0.27777 0.391
26 2 0.262896 0.322309 0.422145
27 4 0.237099 0.280317 0.373175
28 4 0.203638 0.353521 0.461795
29 1 0.156851 0.378914 0.236782
30 2 0.255162 0.373898 0.245426
31 3 0.27468 0.345608 0.286114
32 3 0.297605 0.400843 0.212142
33 2 0.0967379 0.3493 0.281345
34 3 0.0226228 0.353357 0.271215
35 3 0.13251 0.326042 0.318812
36 1 0.117482 0.41446 0.181436
37 2 0.181895 0.436064 0.130732
38 4 0.149486 0.417719 0.078358
39 4 0.266753 0.472231 0.141
40 2 0.0128965 0.427691 0.172145
41 4 0.987098 0.469684 0.123174
42 4 0.953637 0.396478 0.211795
43 1 0.0931495 0.128915 0.0132186
44 2 0.994839 0.123898 0.00457426
45 3 0.97532 0.0956076 0.963886
46 3 0.952395 0.150843 0.0378575
47 2 0.153261 0.0992999 0.968655
48 3 0.227377 0.103357 0.978785
49 3 0.11749 0.0760424 0.931188
50 1 0.132518 0.16446 0.0685636
51 2 0.0681054 0.186064 0.119268
52 4 0.100514 0.167719 0.171641
53 4 0.983248 0.22223 0.109
54 2 0.237104 0.177691 0.0778552
55 4 0.262901 0.219683 0.126825
56 4 0.296362 0.146479 0.0382052
57 1 0.843149 0.121085 0.263219
58 2 0.744839 0.126102 0.254574
59 3 0.72532 0.154392 0.213886
60 3 0.702395 0.0991568 0.287858
61 2 0.903261 0.1507 0.218655
62 3 0.977377 0.146643 0.228785
63 3 0.86749 0.173958 0.181188
64 1 0.882518 0.0855402 0.318564
65 2 0.818105 0.0639363 0.369268
66 4 0.850514 0.0822807 0.421641
67 4 0.733248 0.0277699 0.359
68 2 0.987104 0.072309 0.327855
69 4 0.0129014 0.0303165 0.376825
70 4 0.0463624 0.103521 0.288205
71 1 0.906851 0.371085 0.486781
72 2 0.00516132 0.376102 0.495426
73 3 0.0246798 0.404392 0.536114
74 3 0.0476046 0.349157 0.462142
75 2 0.846739 0.4007 0.531345
76 3 0.772623 0.396643 0.521215
77 3 0.88251 0.423958 0.568812
78 1 0.867482 0.33554 0.431436
79 2 0.931895 0.313936 0.380732
80 4 0.899486 0.332281 0.328359
81 4 0.0167519 0.27777 0.391
82 2 0.762896 0.322309 0.422145
83 4 0.737099 0.280317 0.373175
84 4 0.703638 0.353521 0.461795
85 1 0.656851 0.378914 0.236781
86 2 0.755161 0.373898 0.245426
87 3 0.77468 0.345608 0.286114
88 3 0.797605 0.400843 0.212142
89 2 0.596739 0.3493 0.281344
90 3 0.522623 0.353357 0.271215
91 3 0.63251 0.326042 0.318811
92 1 0.617481 0.41446 0.181436
93 2 0.681895 0.436064 0.130732
94 4 0.649485 0.417718 0.078359
95 4 0.766751 0.47223 0.140999
96 2 0.512896 0.427691 0.172146
97 4 0.487099 0.469684 0.123175
98 4 0.453638 0.396479 0.211795
99 1 0.593149 0.128915 0.0132186
100 2 0.494839 0.123898 0.00457426
101 3 0.47532 0.0956075 0.963886
102 3 0.452395 0.150843 0.0378575
103 2 0.653261 0.0992999 0.968655
104 3 0.727377 0.103357 0.978785
105 3 0.61749 0.0760424 0.931188
106 1 0.632518 0.16446 0.0685636
107 2 0.568105 0.186064 0.119268
108 4 0.600514 0.167719 0.171641
109 4 0.483248 0.22223 0.109
110 2 0.737104 0.177691 0.0778552
111 4 0.762901 0.219683 0.126825
112 4 0.796362 0.146479 0.0382052
113 1 0.343149 0.621085 0.263219
114 2 0.244838 0.626102 0.254574
115 3 0.22532 0.654392 0.213886
116 3 0.202395 0.599157 0.287858
117 2 0.403261 0.6507 0.218655
118 3 0.477377 0.646643 0.228785
119 3 0.36749 0.673958 0.181188
120 1 0.382518 0.58554 0.318564
121 2 0.318105 0.563936 0.369268
122 4 0.350514 0.582281 0.421641
123 4 0.233248 0.52777 0.359
124 2 0.487104 0.572309 0.327855
125 4 0.512901 0.530317 0.376825
126 4 0.546362 0.603521 0.288205
127 1 0.406851 0.871085 0.486781
128 2 0.505161 0.876102 0.495426
129 3 0.52468 0.904392 0.536114
130 3 0.547605 0.849157 0.462142
131 2 0.346739 0.9007 0.531345
132 3 0.272623 0.896643 0.521215
133 3 0.38251 0.923958 0.568812
134 1 0.367482 0.83554 0.431436
135 2 0.431895 0.813936 0.380732
136 4 0.399486 0.832281 0.328359
137 4 0.516752 0.77777 0.391
138 2 0.262896 0.822309 0.422145
139 4 0.237099 0.780317 0.373175
140 4 0.203638 0.853521 0.461795
141 1 0.156851 0.878914 0.236782
142 2 0.255162 0.873898 0.245426
143 3 0.27468 0.845608 0.286114
144 3 0.297605 0.900843 0.212142
145 2 0.0967379 0.8493 0.281345
146 3 0.0226228 0.853357 0.271215
147 3 0.13251 0.826042 0.318812
148 1 0.117482 0.91446 0.181436
149 2 0.181895 0.936064 0.130732
150 4 0.149486 0.917719 0.078358
151 4 0.266753 0.972231 0.141
152 2 0.0128965 0.927691 0.172145
153 4 0.987098 0.969684 0.123174
154 4 0.953637 0.896478 0.211795
155 1 0.0931495 0.628915 0.0132186
156 2 0.994839 0.623898 0.00457425
157 3 0.97532 0.595608 0.963886
158 3 0.952395 0.650843 0.0378575
159 2 0.153261 0.5993 0.968655
160 3 0.227377 0.603357 0.978785
161 3 0.11749 0.576042 0.931188
162 1 0.132518 0.66446 0.0685636
163 2 0.0681054 0.686064 0.119268
164 4 0.100514 0.667719 0.171641
165 4 0.983248 0.72223 0.109
166 2 0.237104 0.677691 0.0778552
167 4 0.262901 0.719683 0.126825
168 4 0.296362 0.646479 0.0382052
169 1 0.843149 0.621085 0.263219
170 2 0.744839 0.626102 0.254574
171 3 0.72532 0.654392 0.213886
172 3 0.702395 0.599157 0.287858
173 2 0.903261 0.6507 0.218655
174 3 0.977377 0.646643 0.228785
175 3 0.86749 0.673958 0.181188
176 1 0.882518 0.58554 0.318564
177 2 0.818105 0.563936 0.369268
178 4 0.850514 0.582281 0.421641
179 4 0.733248 0.52777 0.359
180 2 0.987104 0.572309 0.327855
181 4 0.0129014 0.530317 0.376825
182 4 0.0463624 0.603521 0.288205
183 1 0.906851 0.871085 0.486781
184 2 0.00516135 0.876102 0.495426
185 3 0.0246798 0.904392 0.536114
186 3 0.0476046 0.849157 0.462142
187 2 0.846739 0.9007 0.531345
188 3 0.772623 0.896643 0.521215
189 3 0.88251 0.923958 0.568812
190 1 0.867482 0.83554 0.431436
191 2 0.931895 0.813936 0.380732
192 4 0.899486 0.832281 0.328359
193 4 0.016752 0.77777 0.391
194 2 0.762896 0.822309 0.422145
195 4 0.737099 0.780317 0.373175
196 4 0.703638 0.853521 0.461795
197 1 0.656851 0.878914 0.236781
198 2 0.755161 0.873898 0.245426
199 3 0.77468 0.845608 0.286114
200 3 0.797605 0.900843 0.212142
201 2 0.596739 0.8493 0.281344
202 3 0.522623 0.853357 0.271215
203 3 0.63251 0.826042 0.318811
204 1 0.617481 0.91446 0.181436
205 2 0.681895 0.936064 0.130732
206 4 0.649485 0.917718 0.078359
207 4 0.766751 0.97223 0.140999
208 2 0.512896 0.927691 0.172146
209 4 0.487099 0.969684 0.123175
210 4 0.453638 0.896479 0.211795
211 1 0.593149 0.628915 0.0132186
212 2 0.494839 0.623898 0.00457426
213 3 0.47532 0.595608 0.963886
214 3 0.452395 0.650843 0.0378575
215 2 0.653261 0.5993 0.968655
216 3 0.727377 0.603357 0.978785
217 3 0.61749 0.576042 0.931188
218 1 0.632518 0.66446 0.0685636
219 2 0.568105 0.686064 0.119268
220 4 0.600514 0.667719 0.171641
221 4 0.483248 0.72223 0.109
222 2 0.737104 0.677691 0.0778552
223 4 0.762901 0.719683 0.126825
224 4 0.796362 0.646479 0.0382052
225 1 0.343149 0.121085 0.763219
226 2 0.244838 0.126102 0.754574
227 3 0.22532 0.154392 0.713886
228 3 0.202395 0.0991568 0.787858
229 2 0.403262 0.1507 0.718655
230 3 0.477377 0.146643 0.728785
231 3 0.36749 0.173958 0.681188
232 1 0.382519 0.08554 0.818564
233 2 0.318105 0.0639364 0.869268
234 4 0.350514 0.082282 0.921641
235 4 0.233247 0.0277697 0.859
236 2 0.487104 0.072309 0.827855
237 4 0.512902 0.0303163 0.876825
238 4 0.546363 0.103521 0.788205
239 1 0.406884 0.371111 0.986827
240 2 0.505523 0.37612 0.995464
241 3 0.524707 0.404404 0.0361316
242 3 0.547611 0.349157 0.962139
243 2 0.346523 0.400814 0.0315136
244 3 0.27261 0.396643 0.0212163
245 3 0.38251 0.423972 0.0688334
246 1 0.367424 0.33545 0.931304
247 2 0.431899 0.313926 0.880751
248 4 0.399393 0.33234 0.828196
249 4 0.516992 0.277665 0.891021
250 2 0.262913 0.322301 0.922141
251 4 0.237012 0.28018 0.873021
252 4 0.203415 0.353626 0.961928
253 1 0.156851 0.378915 0.736781
254 2 0.25516 0.373898 0.745426
255 3 0.274683 0.345608 0.786114
256 3 0.297605 0.400843 0.712142
257 2 0.096739 0.349301 0.781343
258 3 0.0226229 0.353357 0.771215
259 3 0.132507 0.326043 0.81881
260 1 0.117482 0.414459 0.681437
261 2 0.181895 0.436064 0.630732
262 4 0.149486 0.417719 0.57836
263 4 0.266751 0.47223 0.641
264 2 0.0128961 0.427691 0.672145
265 4 0.987099 0.469683 0.623176
266 4 0.953639 0.396479 0.711794
267 1 0.0931495 0.128915 0.513219
268 2 0.994838 0.123898 0.504574
269 3 0.97532 0.0956076 0.463886
270 3 0.952395 0.150843 0.537858
271 2 0.153262 0.0992999 0.468655
272 3 0.227377 0.103357 0.478785
273 3 0.11749 0.0760424 0.431188
274 1 0.132518 0.16446 0.568564
275 2 0.0681054 0.186064 0.619268
276 4 0.100514 0.167719 0.671641
277 4 0.983248 0.22223 0.609
278 2 0.237104 0.177691 0.577855
279 4 0.262901 0.219683 0.626825
280 4 0.296362 0.146479 0.538205
281 1 0.843149 0.121085 0.763219
282 2 0.744838 0.126102 0.754574
283 3 0.72532 0.154392 0.713886
284 3 0.702395 0.0991568 0.787858
285 2 0.903262 0.1507 0.718655
286 3 0.977377 0.146643 0.728785
287 3 0.86749 0.173958 0.681188
288 1 0.882518 0.0855402 0.818564
289 2 0.818105 0.0639363 0.869268
290 4 0.850514 0.0822807 0.921641
291 4 0.733248 0.0277699 0.859
292 2 0.987104 0.072309 0.827855
293 4 0.0129014 0.0303165 0.876825
294 4 0.0463625 0.103521 0.788205
295 1 0.906851 0.371085 0.986782
296 2 0.00516151 0.376102 0.995426
297 3 0.0246799 0.404392 0.036114
298 3 0.0476048 0.349157 0.962142
299 2 0.846738 0.4007 0.0313446
300 3 0.772623 0.396643 0.0212146
301 3 0.88251 0.423958 0.0688115
302 1 0.867482 0.33554 0.931436
303 2 0.931895 0.313936 0.880732
304 4 0.899486 0.332281 0.828359
305 4 0.0167521 0.27777 0.891
306 2 0.762896 0.322309 0.922145
307 4 0.737099 0.280317 0.873175
308 4 0.703638 0.353521 0.961795
309 1 0.656851 0.378915 0.736781
310 2 0.755162 0.373898 0.745426
311 3 0.77468 0.345608 0.786114
312 3 0.797605 0.400843 0.712142
313 2 0.596739 0.3493 0.781345
314 3 0.522623 0.353357 0.771215
315 3 0.63251 0.326042 0.818812
316 1 0.617482 0.41446 0.681436
317 2 0.681895 0.436064 0.630732
318 4 0.649486 0.417719 0.578359
319 4 0.766752 0.47223 0.641
320 2 0.512896 0.427691 0.672145
321 4 0.487099 0.469684 0.623175
322 4 0.453637 0.396479 0.711795
323 1 0.593149 0.128915 0.513219
324 2 0.494838 0.123898 0.504574
325 3 0.47532 0.0956075 0.463886
326 3 0.452395 0.150843 0.537858
327 2 0.653262 0.0992999 0.468655
328 3 0.727377 0.103357 0.478785
329 3 0.61749 0.0760424 0.431188
330 1 0.632518 0.16446 0.568564
331 2 0.568105 0.186064 0.619268
332 4 0.600514 0.167719 0.671641
333 4 0.483248 0.22223 0.609
334 2 0.737104 0.177691 0.577855
335 4 0.762901 0.219684 0.626825
336 4 0.796362 0.146479 0.538205
337 1 0.343149 0.621085 0.763219
338 2 0.244838 0.626102 0.754574
339 3 0.22532 0.654392 0.713886
340 3 0.202395 0.599157 0.787858
341 2 0.403262 0.6507 0.718655
342 3 0.477377 0.646643 0.728785
343 3 0.36749 0.673958 0.681188
344 1 0.382519 0.58554 0.818564
345 2 0.318105 0.563936 0.869268
346 4 0.350514 0.582282 0.921641
347 4 0.233247 0.52777 0.859
348 2 0.487104 0.572309 0.827855
349 4 0.512902 0.530316 0.876825
350 4 0.546363 0.603521 0.788205
351 1 0.406884 0.871111 0.986827
352 2 0.505523 0.87612 0.995464
353 3 0.524707 0.904404 0.0361316
354 3 0.547611 0.849157 0.962139
355 2 0.346523 0.900814 0.0315135
356 3 0.27261 0.896643 0.0212163
357 3 0.38251 0.923972 0.0688334
358 1 0.367424 0.83545 0.931304
359 2 0.431899 0.813926 0.880751
360 4 0.399393 0.83234 0.828196
361 4 0.516992 0.777665 0.891021
362 2 0.262913 0.822301 0.922141
363 4 0.237012 0.78018 0.873021
364 4 0.203415 0.853626 0.961928
365 1 0.156851 0.878915 0.736781
366 2 0.25516 0.873898 0.745426
367 3 0.274683 0.845608 0.786114
368 3 0.297605 0.900843 0.712142
369 2 0.0967391 0.849301 0.781343
370 3 0.0226229 0.853357 0.771215
371 3 0.132507 0.826043 0.81881
372 1 0.117482 0.914459 0.681437
373 2 0.181895 0.936064 0.630732
374 4 0.149486 0.91772 0.57836
375 4 0.266751 0.97223 0.641
376 2 0.0128961 0.927691 0.672145
377 4 0.987099 0.969683 0.623176
378 4 0.953639 0.896479 0.711794
379 1 0.0931495 0.628915 0.513219
380 2 0.994838 0.623898 0.504574
381 3 0.97532 0.595608 0.463886
382 3 0.952395 0.650843 0.537858
383 2 0.153262 0.5993 0.468655
384 3 0.227377 0.603357 0.478785
385 3 0.11749 0.576042 0.431188
386 1 0.132518 0.66446 0.568564
387 2 0.0681054 0.686064 0.619268
388 4 0.100514 0.667719 0.671641
389 4 0.983248 0.72223 0.609
390 2 0.237104 0.677691 0.577855
391 4 0.262901 0.719683 0.626825
392 4 0.296362 0.646479 0.538205
393 1 0.843149 0.621085 0.763219
394 2 0.744838 0.626102 0.754574
395 3 0.72532 0.654392 0.713886
396 3 0.702395 0.599157 0.787858
397 2 0.903262 0.6507 0.718655
398 3 0.977377 0.646643 0.728785
399 3 0.86749 0.673958 0.681188
400 1 0.882518 0.58554 0.818564
401 2 0.818105 0.563936 0.869268
402 4 0.850514 0.582281 0.921641
403 4 0.733248 0.52777 0.859
404 2 0.987104 0.572309 0.827855
405 4 0.0129014 0.530316 0.876825
406 4 0.0463625 0.603521 0.788205
407 1 0.906851 0.871085 0.986782
408 2 0.00516153 0.876102 0.995426
409 3 0.0246799 0.904392 0.036114
410 3 0.0476048 0.849157 0.962142
411 2 0.846738 0.9007 0.0313446
412 3 0.772623 0.896643 0.0212146
413 3 0.88251 0.923958 0.0688115
414 1 0.867482 0.83554 0.931436
415 2 0.931895 0.813936 0.880732
416 4 0.899486 0.832281 0.828359
417 4 0.0167521 0.77777 0.891
418 2 0.762896 0.822309 0.922145
419 4 0.737099 0.780317 0.873175
420 4 0.703638 0.853521 0.961795
421 1 0.656851 0.878915 0.736781
422 2 0.755162 0.873898 0.745426
423 3 0.77468 0.845608 0.786114
424 3 0.797605 0.900843 0.712142
425 2 0.596739 0.8493 0.781345
426 3 0.522623 0.853357 0.771215
427 3 0.63251 0.826042 0.818812
428 1 0.617482 0.91446 0.681436
429 2 0.681895 0.936064 0.630732
430 4 0.649486 0.917719 0.578359
431 4 0.766752 0.97223 0.641
432 2 0.512896 0.927691 0.672145
433 4 0.487099 0.969684 0.623175
434 4 0.453637 0.896479 0.711795
435 1 0.593149 0.628915 0.513219
436 2 0.494838 0.623898 0.504574
437 3 0.47532 0.595608 0.463886
438 3 0.452395 0.650843 0.537858
439 2 0.653262 0.5993 0.468655
440 3 0.727377 0.603357 0.478785
441 3 0.61749 0.576042 0.431188
442 1 0.632518 0.66446 0.568564
443 2 0.568105 0.686064 0.619268
444 4 0.600514 0.667719 0.671641
445 4 0.483248 0.72223 0.609
446 2 0.737104 0.677691 0.577855
447 4 0.762901 0.719684 0.626825
448 4 0.796362 0.646479 0.538205
ITEM: TIMESTEP
1000
ITEM: NUMBER OF ATOMS
448
ITEM: BOX BOUNDS xy xz yz pp pp pp
-4.1943219175344376e-01 1.3890685329084336e+01 -1.6328998608590753e-01
-5.8647160447332869e-01 1.4038908726835473e+01 -2.4465687658319205e-01
2.1055002143418022e-01 2.2469360336865918e+01 1.7763712236215112e-01
ITEM: ATOMS id type xs ys zs
1 1 0.330143 0.136403 0.267199
2 2 0.233934 0.125194 0.252779
3 3 0.22194 0.160234 0.21132
4 3 0.198004 0.0911523 0.286393
5 2 0.388399 0.18582 0.230314
6 3 0.463612 0.177195 0.248276
7 3 0.353901 0.212241 0.188407
8 1 0.373623 0.0896084 0.319816
9 2 0.311648 0.0608991 0.369538
10 4 0.352254 0.039212 0.419806
11 4 0.217879 0.0629544 0.364582
12 2 0.477386 0.0701416 0.324461
13 4 0.496645 0.0112169 0.366949
14 4 0.537224 0.110815 0.288612
15 1 0.421167 0.350777 0.481465
16 2 0.52059 0.354248 0.494868
17 3 0.529586 0.359036 0.539022
18 3 0.559715 0.31432 0.463057
19 2 0.360228 0.391797 0.525176
20 3 0.291732 0.384961 0.510337
21 3 0.396021 0.380014 0.564387
22 1 0.385355 0.31278 0.427221
23 2 0.448975 0.305959 0.372891
24 4 0.407773 0.301593 0.321458
25 4 0.540304 0.309881 0.380772
26 2 0.280351 0.298611 0.420583
27 4 0.251442 0.264878 0.371322
28 4 0.222848 0.316314 0.466139
29 1 0.164829 0.411533 0.248317
30 2 0.265876 0.401287 0.254133
31 3 0.267251 0.345962 0.287449
32 3 0.303155 0.412638 0.212863
33 2 0.107603 0.404793 0.301176
34 3 0.0299921 0.388688 0.287199
35 3 0.148836 0.369175 0.330792
36 1 0.121455 0.426015 0.192156
37 2 0.179179 0.437424 0.137093
38 4 0.138001 0.453159 0.0861233
39 4 0.272537 0.434702 0.138235
40 2 0.0133969 0.43967 0.190107
41 4 0.986986 0.474543 0.13933
42 4 0.956645 0.42429 0.233775
43 1 0.0937458 0.120158 0.998228
44 2 0.996315 0.112125 0.989051
45 3 0.981928 0.0930356 0.94224
46 3 0.950477 0.13374 0.0234074
47 2 0.157576 0.107897 0.95239
48 3 0.229985 0.129494 0.965404
49 3 0.120204 0.106443 0.910487
50 1 0.126967 0.159473 0.0549499
51 2 0.0603166 0.183387 0.10497
52 4 0.098413 0.213549 0.154131
53 4 0.968512 0.185239 0.0967811
54 2 0.228441 0.178239 0.0662287
55 4 0.259035 0.186769 0.121519
56 4 0.291155 0.181193 0.0216773
57 1 0.808982 0.100835 0.25371
58 2 0.715101 0.127554 0.253939
59 3 0.700522 0.163095 0.21522
60 3 0.696417 0.128606 0.299925
61 2 0.870924 0.106752 0.205243
62 3 0.943701 0.0799793 0.217924
63 3 0.835725 0.121164 0.163643
64 1 0.850073 0.0667619 0.311492
65 2 0.7838 0.0387591 0.357324
66 4 0.811311 0.0398789 0.412218
67 4 0.704209 0.993211 0.340264
68 2 0.953891 0.0827604 0.325449
69 4 0.980652 0.0922401 0.380658
70 4 0.0114651 0.0901302 0.280503
71 1 0.906867 0.366545 0.49429
72 2 0.00369338 0.379891 0.510248
73 3 0.0121351 0.376739 0.556915
74 3 0.0470926 0.350475 0.475631
75 2 0.835832 0.383569 0.535743
76 3 0.775782 0.343511 0.522495
77 3 0.879139 0.39457 0.574544
78 1 0.87913 0.325882 0.43658
79 2 0.951688 0.326474 0.387889
80 4 0.915966 0.315659 0.334851
81 4 0.0406147 0.334038 0.401279
82 2 0.781696 0.295548 0.422152
83 4 0.762997 0.266468 0.368517
84 4 0.711373 0.312603 0.459041
85 1 0.662229 0.374003 0.23054
86 2 0.753934 0.34057 0.223636
87 3 0.774337 0.307837 0.263005
88 3 0.783437 0.353403 0.183948
89 2 0.606592 0.354205 0.282363
90 3 0.547796 0.399026 0.280296
91 3 0.653871 0.34167 0.318884
92 1 0.620636 0.428837 0.183452
93 2 0.681004 0.455811 0.129688
94 4 0.643708 0.449413 0.0764279
95 4 0.765408 0.483031 0.142702
96 2 0.517601 0.452233 0.18245
97 4 0.484909 0.474198 0.129651
98 4 0.463658 0.444292 0.228897
99 1 0.589135 0.146741 0.0114808
100 2 0.491014 0.1262 0.00587275
101 3 0.484349 0.0958943 0.961294
102 3 0.448626 0.14955 0.042793
103 2 0.647929 0.124614 0.965888
104 3 0.722534 0.146097 0.967946
105 3 0.61255 0.103186 0.926068
106 1 0.627143 0.190651 0.0651752
107 2 0.55793 0.228588 0.109686
108 4 0.576187 0.209565 0.164984
109 4 0.48612 0.278614 0.0922773
110 2 0.73024 0.201912 0.0765831
111 4 0.758515 0.234261 0.127711
112 4 0.791021 0.179204 0.0345232
113 1 0.3442 0.643357 0.259252
114 2 0.24689 0.643699 0.24559
115 3 0.231304 0.681497 0.208173
116 3 0.202884 0.608892 0.280066
117 2 0.413056 0.678134 0.21827
118 3 0.481244 0.688911 0.239171
119 3 0.374022 0.706664 0.181723
120 1 0.380205 0.601678 0.312693
121 2 0.314509 0.591629 0.364906
122 4 0.357031 0.582871 0.417241
123 4 0.223474 0.583916 0.356678
124 2 0.484166 0.575086 0.317957
125 4 0.504835 0.521546 0.361739
126 4 0.548798 0.616694 0.285273
127 1 0.401539 0.874976 0.499258
128 2 0.492049 0.914664 0.492478
129 3 0.490235 0.974041 0.518987
130 3 0.517974 0.903703 0.447437
131 2 0.346192 0.894594 0.549192
132 3 0.273216 0.874386 0.540768
133 3 0.388063 0.94656 0.575166
134 1 0.361584 0.814237 0.452806
135 2 0.426311 0.787607 0.402397
136 4 0.394464 0.802018 0.349544
137 4 0.511221 0.759106 0.418199
138 2 0.258641 0.810221 0.44148
139 4 0.230972 0.783186 0.388418
140 4 0.198699 0.839882 0.481484
141 1 0.148531 0.869695 0.249305
142 2 0.245045 0.858878 0.259705
143 3 0.265236 0.839868 0.303551
144 3 0.281986 0.884932 0.221324
145 2 0.0830746 0.843647 0.291478
146 3 0.00552705 0.854066 0.269318
147 3 0.114084 0.821364 0.332205
148 1 0.114542 0.908102 0.192134
149 2 0.179621 0.918509 0.139837
150 4 0.137581 0.942832 0.0894585
151 4 0.269073 0.898946 0.144117
152 2 0.0145818 0.933565 0.18168
153 4 0.996718 0.981338 0.133489
154 4 0.946521 0.913223 0.219556
155 1 0.0963947 0.635448 0.993836
156 2 0.99688 0.63351 0.982809
157 3 0.985054 0.648471 0.937934
158 3 0.965569 0.671934 0.0231024
159 2 0.160925 0.614715 0.94845
160 3 0.235211 0.614105 0.957237
161 3 0.121889 0.616248 0.906355
162 1 0.133355 0.656423 0.0517874
163 2 0.0732063 0.691831 0.101356
164 4 0.118096 0.704599 0.151825
165 4 0.982636 0.70645 0.0944835
166 2 0.24012 0.657589 0.0636484
167 4 0.27002 0.673023 0.116865
168 4 0.298217 0.635353 0.0207411
169 1 0.839128 0.630154 0.25173
170 2 0.741704 0.619294 0.238598
171 3 0.712592 0.662274 0.203754
172 3 0.710631 0.576566 0.275914
173 2 0.89645 0.67773 0.210065
174 3 0.970813 0.669493 0.22145
175 3 0.853929 0.69352 0.171797
176 1 0.888419 0.591578 0.301771
177 2 0.827017 0.553542 0.351971
178 4 0.872955 0.519132 0.397675
179 4 0.734784 0.558558 0.348488
180 2 0.993939 0.594106 0.314312
181 4 0.0185835 0.557988 0.364785
182 4 0.0540729 0.633962 0.278175
183 1 0.893621 0.880676 0.501342
184 2 0.992457 0.889978 0.507545
185 3 0.00315663 0.900845 0.554862
186 3 0.0379965 0.847912 0.480569
187 2 0.834098 0.909659 0.548408
188 3 0.762991 0.883491 0.541051
189 3 0.865652 0.942387 0.583819
190 1 0.866636 0.833565 0.447329
191 2 0.933078 0.809697 0.398913
192 4 0.896116 0.795612 0.345518
193 4 0.0228089 0.801852 0.40999
194 2 0.760958 0.813654 0.437955
195 4 0.73901 0.78076 0.38667
196 4 0.699185 0.83282 0.479731
197 1 0.659344 0.863968 0.239496
198 2 0.758188 0.881646 0.251075
199 3 0.78416 0.850256 0.286827
200 3 0.792247 0.926226 0.21867
201 2 0.605681 0.800958 0.270683
202 3 0.529936 0.809797 0.259388
203 3 0.639103 0.780454 0.312813
204 1 0.616743 0.912982 0.190916
205 2 0.676048 0.94985 0.140577
206 4 0.633226 0.964085 0.0902737
207 4 0.766973 0.96544 0.148758
208 2 0.509215 0.918639 0.184411
209 4 0.482866 0.971603 0.139607
210 4 0.451342 0.887571 0.223685
211 1 0.582565 0.657734 0.992883
212 2 0.483359 0.648189 0.982549
213 3 0.471219 0.604584 0.945238
214 3 0.451793 0.654028 0.0230364
215 2 0.64568 0.638816 0.948372
216 3 0.72101 0.64685 0.964288
217 3 0.605526 0.612325 0.912247
218 1 0.623458 0.685549 0.0507373
219 2 0.559797 0.716086 0.0987817
220 4 0.592257 0.695982 0.152109
221 4 0.476861 0.75278 0.0875442
222 2 0.728349 0.67959 0.0646766
223 4 0.752992 0.68841 0.119609
224 4 0.791868 0.66606 0.0234646
225 1 0.361197 0.103076 0.75278
226 2 0.26681 0.086528 0.736132
227 3 0.252304 0.113566 0.695173
228 3 0.216372 0.073174 0.772043
229 2 0.428924 0.136392 0.71346
230 3 0.500315 0.140363 0.732796
231 3 0.395469 0.1616 0.675558
232 1 0.387442 0.0794913 0.81462
233 2 0.317337 0.0730353 0.864416
234 4 0.347335 0.0693462 0.919188
235 4 0.227774 0.0752049 0.848574
236 2 0.486924 0.057939 0.830919
237 4 0.506206 0.0165904 0.882342
238 4 0.555841 0.0755816 0.795106
239 1 0.392319 0.398814 0.990712
240 2 0.492514 0.407433 0.996578
241 3 0.509716 0.419547 0.043614
242 3 0.535277 0.368162 0.964087
243 2 0.331642 0.43842 0.0342994
244 3 0.260154 0.421747 0.0262898
245 3 0.366266 0.441676 0.0738327
246 1 0.353566 0.349043 0.941241
247 2 0.417554 0.309018 0.893453
248 4 0.374228 0.28053 0.845332
249 4 0.507911 0.302853 0.902869
250 2 0.248185 0.333585 0.936043
251 4 0.221605 0.266769 0.901222
252 4 0.189585 0.384293 0.966206
253 1 0.152625 0.366849 0.753013
254 2 0.25161 0.357459 0.76147
255 3 0.263943 0.342274 0.805215
256 3 0.290623 0.40218 0.731373
257 2 0.0885816 0.348676 0.800193
258 3 0.0243401 0.384059 0.792701
259 3 0.1323 0.340629 0.837584
260 1 0.118082 0.407221 0.697317
261 2 0.180947 0.421092 0.646951
262 4 0.14338 0.423316 0.593375
263 4 0.273935 0.426746 0.657966
264 2 0.0126333 0.430191 0.688791
265 4 0.988037 0.463003 0.636152
266 4 0.951143 0.423947 0.730403
267 1 0.0913856 0.152561 0.508746
268 2 0.993802 0.177812 0.501282
269 3 0.969618 0.15282 0.462199
270 3 0.963381 0.17557 0.544337
271 2 0.140032 0.111948 0.4622
272 3 0.213553 0.0946049 0.471734
273 3 0.0857661 0.106605 0.426418
274 1 0.141153 0.164941 0.564907
275 2 0.0865187 0.193906 0.61905
276 4 0.135766 0.204771 0.667492
277 4 0.993971 0.201789 0.618201
278 2 0.248141 0.162614 0.568271
279 4 0.285817 0.203816 0.61363
280 4 0.299115 0.125221 0.526474
281 1 0.866884 0.130068 0.75695
282 2 0.768961 0.119274 0.742868
283 3 0.762284 0.136925 0.697206
284 3 0.731941 0.0634313 0.775647
285 2 0.924297 0.179492 0.716985
286 3 0.998205 0.190551 0.7323
287 3 0.881621 0.185575 0.67784
288 1 0.902034 0.089205 0.811943
289 2 0.833956 0.0625526 0.859988
290 4 0.863773 0.0628121 0.915729
291 4 0.743988 0.047775 0.846831
292 2 0.00669361 0.0835431 0.824154
293 4 0.0357219 0.0219664 0.864242
294 4 0.0656361 0.128281 0.790469
295 1 0.895571 0.401251 0.993009
296 2 0.987484 0.378632 0.0175805
297 3 0.00987099 0.434002 0.0408119
298 3 0.0229777 0.344232 0.981576
299 2 0.838765 0.466506 0.0199441
300 3 0.764492 0.457631 0.998621
301 3 0.872614 0.489948 0.0578076
302 1 0.862421 0.357035 0.938558
303 2 0.928107 0.316985 0.894703
304 4 0.886666 0.298683 0.843789
305 4 0.0171788 0.30154 0.907387
306 2 0.757947 0.341472 0.929237
307 4 0.734335 0.273685 0.893891
308 4 0.694313 0.388834 0.956469
309 1 0.665561 0.339637 0.742712
310 2 0.763987 0.350126 0.756448
311 3 0.775824 0.3178 0.796948
312 3 0.800881 0.397869 0.725506
313 2 0.602427 0.297127 0.784405
314 3 0.52915 0.312424 0.772383
315 3 0.63398 0.298111 0.827798
316 1 0.628099 0.372143 0.686697
317 2 0.698164 0.402752 0.640131
318 4 0.661229 0.404634 0.585387
319 4 0.785293 0.419138 0.651192
320 2 0.52434 0.390109 0.677508
321 4 0.497558 0.437816 0.631434
322 4 0.461009 0.362255 0.71669
323 1 0.593192 0.143494 0.497585
324 2 0.494247 0.144576 0.489958
325 3 0.474922 0.128332 0.444843
326 3 0.459346 0.14433 0.532401
327 2 0.645566 0.13291 0.445277
328 3 0.718678 0.138571 0.458381
329 3 0.609549 0.110643 0.407569
330 1 0.640154 0.147441 0.555645
331 2 0.582977 0.147237 0.612493
332 4 0.628474 0.14064 0.663331
333 4 0.491115 0.147426 0.607638
334 2 0.741044 0.173082 0.560406
335 4 0.773463 0.203154 0.612584
336 4 0.801663 0.1728 0.517222
337 1 0.355426 0.589139 0.741335
338 2 0.260696 0.625672 0.737565
339 3 0.23727 0.625648 0.692961
340 3 0.225418 0.607295 0.775517
341 2 0.418677 0.599424 0.694281
342 3 0.49118 0.569403 0.701217
343 3 0.375696 0.624565 0.660662
344 1 0.387741 0.547111 0.796644
345 2 0.31847 0.532101 0.846523
346 4 0.353018 0.546515 0.899172
347 4 0.23249 0.497193 0.840298
348 2 0.490783 0.540146 0.810952
349 4 0.515185 0.52079 0.866157
350 4 0.554349 0.558745 0.769947
351 1 0.401863 0.905037 0.99434
352 2 0.496704 0.887588 0.0072723
353 3 0.5178 0.922446 0.0474916
354 3 0.526409 0.838536 0.979978
355 2 0.349659 0.966354 0.0285419
356 3 0.272885 0.965127 0.0192525
357 3 0.382929 0.969711 0.0717462
358 1 0.355113 0.856074 0.945341
359 2 0.410414 0.804042 0.901128
360 4 0.367658 0.765442 0.855507
361 4 0.502736 0.796844 0.906499
362 2 0.251301 0.860276 0.932951
363 4 0.207893 0.815568 0.890374
364 4 0.201891 0.915061 0.966446
365 1 0.144881 0.870165 0.753095
366 2 0.242149 0.871855 0.767296
367 3 0.25707 0.818175 0.798677
368 3 0.285616 0.893997 0.728798
369 2 0.0843278 0.824121 0.794564
370 3 0.0118605 0.837652 0.780162
371 3 0.113979 0.788049 0.82955
372 1 0.107171 0.908691 0.698645
373 2 0.174091 0.92204 0.646184
374 4 0.131977 0.924762 0.594999
375 4 0.265945 0.931046 0.65519
376 2 0.00342526 0.921339 0.687422
377 4 0.979638 0.969453 0.640633
378 4 0.945413 0.89024 0.727854
379 1 0.105174 0.612517 0.501938
380 2 0.0050701 0.615808 0.489099
381 3 0.990115 0.575641 0.45437
382 3 0.969731 0.651484 0.52253
383 2 0.166686 0.572025 0.463002
384 3 0.236533 0.569333 0.482552
385 3 0.141038 0.550044 0.422512
386 1 0.142808 0.643792 0.55866
387 2 0.075361 0.659739 0.610615
388 4 0.118095 0.66073 0.662365
389 4 0.986943 0.677914 0.601943
390 2 0.24376 0.666825 0.569519
391 4 0.264801 0.713874 0.616854
392 4 0.306043 0.644486 0.527547
393 1 0.877066 0.641593 0.745145
394 2 0.786767 0.624689 0.719076
395 3 0.782661 0.658193 0.679689
396 3 0.733686 0.596166 0.746782
397 2 0.945517 0.696424 0.719477
398 3 0.00870011 0.702558 0.748513
399 3 0.935193 0.704891 0.673198
400 1 0.902353 0.610587 0.8057
401 2 0.824814 0.596754 0.848129
402 4 0.846049 0.587273 0.904438
403 4 0.735482 0.588797 0.829403
404 2 0.00419336 0.597283 0.828109
405 4 0.0190232 0.534438 0.869143
406 4 0.069791 0.64827 0.805012
407 1 0.896317 0.889713 0.00401481
408 2 0.994474 0.871192 0.0136765
409 3 0.00819762 0.891652 0.0577634
410 3 0.0130454 0.816085 0.982773
411 2 0.838797 0.938935 0.043634
412 3 0.765366 0.937518 0.0301671
413 3 0.882243 0.969333 0.0771473
414 1 0.853994 0.852981 0.950135
415 2 0.912362 0.815982 0.901158
416 4 0.875091 0.811093 0.848905
417 4 0.00282655 0.794436 0.908461
418 2 0.747533 0.839368 0.940586
419 4 0.719101 0.782717 0.89823
420 4 0.688668 0.885458 0.970716
421 1 0.644583 0.871062 0.756776
422 2 0.742203 0.870661 0.773594
423 3 0.747059 0.828652 0.813206
424 3 0.787479 0.879494 0.734732
425 2 0.573963 0.842852 0.797288
426 3 0.503164 0.85208 0.778586
427 3 0.60663 0.813587 0.834626
428 1 0.613881 0.897395 0.698361
429 2 0.685385 0.930129 0.652805
430 4 0.653055 0.95797 0.60201
431 4 0.776989 0.930103 0.666112
432 2 0.511594 0.901088 0.677906
433 4 0.493565 0.930713 0.622688
434 4 0.443333 0.87632 0.713556
435 1 0.602778 0.602611 0.498825
436 2 0.507184 0.61707 0.4886
437 3 0.493707 0.602804 0.443988
438 3 0.47151 0.669641 0.516182
439 2 0.654863 0.539904 0.464664
440 3 0.729973 0.549158 0.477717
441 3 0.624927 0.534752 0.421023
442 1 0.650736 0.648809 0.548848
443 2 0.589494 0.687315 0.596929
444 4 0.631591 0.705454 0.647662
445 4 0.496255 0.694383 0.589164
446 2 0.755737 0.655624 0.553055
447 4 0.786268 0.715233 0.593099
448 4 0.810926 0.610755 0.517806
ITEM: TIMESTEP
2000
ITEM: NUMBER OF ATOMS
448
ITEM: BOX BOUNDS xy xz yz pp pp pp
-1.1634781865125801e-01 1.3972606692089020e+01 -1.5524712643981245e-01