LAMMPS data file via write_data, version 15 Apr 2020, timestep = 80000

448 atoms
4 atom types

-6.3063877311373417e-03 1.3885506387731173e+01 xlo xhi
2.2135989623146823e-01 1.3053440103768601e+01 ylo yhi
-4.8200822615261707e-01 2.3161918584452330e+01 zlo zhi
-3.1953965878665818e+00 6.2206072868960471e-01 -3.5405982305755717e+00 xy xz yz

Masses

1 12.0107
2 14.0067
3 1.00794
4 15.9994

Atoms # full

1 1 1 -1.8634674216471761e-03 6.3271864586163744e+00 1.2443760718778651e+00 2.9941378272039931e+00 0 0 0
2 1 2 1.6878966318425281e-02 4.9822809894483484e+00 1.1082862654841072e+00 2.7300850350784356e+00 0 0 0
3 1 3 1.4858388900256228e-01 4.6706725988779141e+00 1.3327473844384219e+00 1.7161059735334820e+00 0 0 0
4 1 3 1.5692068046958241e-01 4.4747099957422991e+00 6.5073083006150145e-01 3.4866947165545756e+00 0 0 0
7 1 3 1.5365407797895414e-01 6.7076061768581701e+00 1.8207313892597499e+00 1.0050931285001894e+00 0 0 0
8 1 1 2.8851927753660911e-02 6.8187584921991284e+00 9.5976985629773037e-01 4.3101452007733485e+00 0 0 0
9 1 2 2.3334201634309590e-01 5.8660226656961214e+00 7.4515271232328595e-01 5.4979760416124126e+00 0 0 0
10 1 4 -2.6440409246465690e-01 6.4295679107928843e+00 8.7504203332623987e-01 6.6568064460785221e+00 0 0 0
11 1 4 -2.8509823005614732e-01 4.6468434612224359e+00 4.4121389428345137e-01 5.3097840937252965e+00 0 0 0
15 1 1 -3.3002197385040739e-03 3.1005658262125926e+00 3.1976398297813255e+00 1.3477595313352154e+01 0 0 0
16 1 2 7.1399169717664829e-03 4.4582615166932582e+00 2.9588445971246609e+00 1.3571824193110922e+01 0 0 0
17 1 3 1.3802427876784029e-01 4.7128824134997114e+00 2.6204598873238347e+00 1.4497941970764058e+01 0 0 0
18 1 3 1.5407463060009272e-01 5.0280136171251764e+00 2.9065506536152221e+00 1.2690367934686584e+01 0 0 0
19 1 2 5.3885102034899324e-04 2.3890318182276089e+00 3.0420687203649019e+00 1.4633679876034099e+01 0 0 0
20 1 3 1.5236753454359833e-01 1.2962514913595913e+00 3.1207346662666695e+00 1.4419272808419660e+01 0 0 0
21 1 3 1.3553035751839751e-01 2.9253896214068109e+00 2.8023062927024021e+00 1.5427180042844769e+01 0 0 0
22 1 1 3.2460043150858264e-02 2.4964810585976491e+00 3.5373342825290495e+00 1.2182762095842966e+01 0 0 0
23 1 2 2.2663053274802059e-01 3.4056444542790065e+00 3.7948452026199071e+00 1.1023719150600556e+01 0 0 0
24 1 4 -2.5937296023433593e-01 2.8448374719638210e+00 4.1984014867400923e+00 9.9607306832488156e+00 0 0 0
25 1 4 -2.9255905393634313e-01 4.6959024331017600e+00 3.7088047963750808e+00 1.1180103299027326e+01 0 0 0
26 1 2 2.3153666964244146e-01 1.0567441781359488e+00 3.5500487305235926e+00 1.2058919520677311e+01 0 0 0
27 1 4 -2.6857019344380056e-01 5.3337178923826500e-01 3.8007793524488189e+00 1.0880286226008023e+01 0 0 0
28 1 4 -2.8600827458774208e-01 3.4418252823405804e-01 3.3498600853244813e+00 1.3112857462578420e+01 0 0 0
29 1 1 -4.1040397278617573e-03 -3.2699519777634800e-01 4.0782004815383788e+00 7.6231601162884335e+00 0 0 0
30 1 2 8.5466413780141831e-03 1.0483879537823220e+00 3.8584911806292839e+00 7.7175005697806984e+00 0 0 0
31 1 3 1.3965209496158493e-01 1.2906211386531863e+00 3.7939348823506558e+00 8.7327838449375434e+00 0 0 0
32 1 3 1.5375689650400812e-01 1.5249063145865700e+00 3.8088125309146541e+00 6.8135081780551374e+00 0 0 0
35 1 3 1.4890362309369493e-01 -7.4549502842765136e-01 3.7582826425761069e+00 9.6016945920522279e+00 0 0 0
36 1 1 2.9348681261507598e-02 -9.7066870594606369e-01 4.1594415210235898e+00 6.3440310339170267e+00 0 0 0
37 1 2 2.2315044181275545e-01 -1.1887531016100567e-01 4.1194305544161605e+00 5.1633245015860494e+00 0 0 0
38 1 4 -2.5682620881096346e-01 -6.9526342473598957e-01 4.3126967650537171e+00 4.0239765297068759e+00 0 0 0
39 1 4 -2.8870733932106135e-01 1.1608175954204387e+00 3.9046182601713575e+00 5.1833878214914950e+00 0 0 0
43 1 1 -6.1543313348996279e-03 3.3678118961922121e+00 -1.3844104304853850e+00 2.0792017563384860e+01 0 0 -1
44 1 2 1.9262340657662941e-03 2.0054923437711332e+00 -1.5150235044012612e+00 2.0490090971104685e+01 1 0 -1
45 1 3 1.3613593997083814e-01 1.7548399116448987e+00 -1.1826607338090116e+00 1.9541862639471802e+01 1 0 0
46 1 3 1.4836771190350706e-01 1.4342802683351774e+00 -1.5119860585025637e+00 2.1411671300901581e+01 1 0 -1
47 1 2 5.4639997486120584e-03 4.1605097716208288e+00 -1.1367354631678175e+00 1.9685490006239569e+01 0 0 0
48 1 3 1.4365671550729858e-01 5.1534806489497607e+00 -7.7984927064624365e-01 2.0145761535193976e+01 0 0 0
49 1 3 1.4358918994495082e-01 3.5450668814391992e+00 -1.0260734662801114e+00 1.8840664340481290e+01 0 0 0
50 1 1 2.5211222434400198e-02 3.8848967068138487e+00 -1.5532928890291142e+00 2.2105811352250107e+01 0 0 -1
51 1 2 2.2576287926494271e-01 2.4104006653472263e+00 1.6316469923991375e+00 -4.0358418299908783e-01 0 0 0
52 1 4 -2.6270156795091176e-01 2.9566378398328590e+00 1.4169840364469566e+00 7.4322487057944042e-01 0 0 0
53 1 4 -2.8134177439750319e-01 1.7311211562897060e+00 -2.0180116904611838e+00 2.3138674594890297e+01 1 0 -1
54 1 2 2.4026925532196533e-01 5.3624016594321589e+00 -1.4772867582201918e+00 2.2366512784966645e+01 0 0 -1
55 1 4 -2.7210299982754643e-01 5.1708005773637158e+00 1.7581317434080044e+00 -1.4394865474493584e-01 0 0 0
56 1 4 -2.7560693607990366e-01 6.1315402483756607e+00 -1.0590730059848794e+00 2.1391485481170967e+01 0 0 -1
62 1 3 1.5757890987172649e-01 1.2889325764664865e+00 1.4332549424506025e+00 2.1713075494871594e+00 1 0 0
68 1 2 2.4146782014561480e-01 1.3073965307606450e+00 1.2118182447545802e+00 4.6073234276160226e+00 1 0 0
69 1 4 -2.6540673993676805e-01 1.7308541312889649e+00 1.0867412224493795e+00 5.8178495133033481e+00 0 0 0
70 1 4 -2.8196937245253878e-01 2.1022013847111238e+00 1.3116507282279339e+00 3.6246698647188103e+00 0 0 0
89 1 2 1.5341344643727488e-02 5.7135802097225659e+00 3.5689056363738505e+00 8.7519934518853830e+00 0 0 0
90 1 3 1.4615730938674562e-01 4.7378549549521765e+00 3.4352070310859939e+00 8.4886106272654587e+00 0 0 0
92 1 1 3.7701893888828580e-02 6.0463223352128299e+00 3.8934598373008797e+00 6.3245973726078208e+00 0 0 0
94 1 4 -2.6117194624517454e-01 6.3178727371592158e+00 4.2424390503829201e+00 3.9934883275105211e+00 0 0 0
96 1 2 2.2878819953770466e-01 4.5839448073777351e+00 3.9165935861811740e+00 6.1450979483676607e+00 0 0 0
97 1 4 -2.7227781431277487e-01 4.2003077977646344e+00 4.3062409982332426e+00 4.9444050124699750e+00 0 0 0
98 1 4 -2.9182189435937506e-01 3.8011084488079199e+00 3.8668705492865350e+00 7.1757000494641554e+00 0 0 0
113 1 1 -7.9764705580419384e-03 3.1348480094725333e+00 7.1280160969113515e+00 5.9555062448735123e+00 0 0 0
114 1 2 3.3092078901953773e-03 1.7661881260223029e+00 7.2559695862559801e+00 5.7210774856208131e+00 0 0 0
115 1 3 1.4424375769177306e-01 1.4591712988776284e+00 7.3764730023493783e+00 4.7158967316610836e+00 0 0 0
116 1 3 1.4934031235793949e-01 1.2766809086910509e+00 7.1601316308138765e+00 6.7267017204300092e+00 0 0 0
118 1 3 1.4701100940097250e-01 5.0133676023976284e+00 7.1412490177135348e+00 5.4511248764567704e+00 0 0 0
119 1 3 1.4008886503418147e-01 3.5219223117484999e+00 7.2226298726172642e+00 4.0210688123818015e+00 0 0 0
120 1 1 2.9207957787632469e-02 3.6132949001386949e+00 7.0969889802372501e+00 7.3208861285947329e+00 0 0 0
121 1 2 2.2766528003574951e-01 2.7103006450618055e+00 7.1702525035405182e+00 8.5112652055817808e+00 0 0 0
122 1 4 -2.5673194605612176e-01 3.2838819334764713e+00 7.0282592869988738e+00 9.6679109833131651e+00 0 0 0
123 1 4 -2.8768763983927598e-01 1.4419754385271639e+00 7.2687359731491226e+00 8.3416496510971765e+00 0 0 0
124 1 2 2.3512549466179081e-01 4.9973813967673504e+00 6.7819430576500679e+00 7.6912366874107594e+00 0 0 0
155 1 1 -3.5021601801011847e-03 -5.5303659523921556e-01 8.3982678778251767e+00 1.8445909570301788e-01 0 0 0
159 1 2 5.6949220146993162e-03 8.1022020429530472e-01 5.3803743167086484e+00 2.2774565836057988e+01 0 0 0
160 1 3 1.4561802119867073e-01 1.9029633743425984e+00 5.2520032098523393e+00 2.2899773879315283e+01 0 0 0
161 1 3 1.4641006577338944e-01 1.1542533363131313e-01 5.6354641483175039e+00 2.1969622635549754e+01 0 0 0
162 1 1 3.3037641392883649e-02 -1.5513578370886308e-02 7.9025616456520043e+00 1.4209702860588884e+00 0 0 0
163 1 2 2.2219899398449827e-01 -8.5133929243607143e-01 7.6519223632668867e+00 2.5534402739941289e+00 0 0 0
164 1 4 -2.5450521807257120e-01 -2.1820013584480219e-01 7.4826599791405251e+00 3.6957032392908102e+00 0 0 0
166 1 2 2.4049777416792251e-01 1.5259153101837919e+00 7.7713192200943242e+00 1.5354869356137906e+00 0 0 0
168 1 4 -2.8791989626262565e-01 2.2755666395258602e+00 8.2030770789839451e+00 5.8910535469408365e-01 0 0 0
181 1 4 -2.6433002909465642e-01 -1.3856084907589512e+00 7.1809152895463111e+00 8.7021343929270660e+00 0 0 0
212 1 2 5.5472178260050908e-03 4.9799634590877853e+00 8.0892970116806868e+00 -8.8650732935149745e-02 0 0 0
213 1 3 1.4456480504513844e-01 5.3139292084663623e+00 4.6125010760648575e+00 2.2521386711454419e+01 0 0 0
214 1 3 1.5221275259184297e-01 4.4210055117941183e+00 8.0715494895278788e+00 8.4283578750564825e-01 0 0 0
221 1 4 -2.9213397245717648e-01 4.8747264527913234e+00 7.7203840863554056e+00 2.5143181369986456e+00 0 0 0
225 1 1 4.5788431363549993e-03 6.7940157258319669e+00 -8.5983846734750125e-01 1.4810877271578907e+01 0 0 0
226 1 2 2.0709679356802072e-02 5.4915938849836827e+00 -1.2446067558262741e+00 1.4552075710957959e+01 0 0 0
227 1 3 1.3399301727625035e-01 5.2991731586282720e+00 -9.0558285434110886e-01 1.3557521555750970e+01 0 0 0
228 1 3 1.6466837893914377e-01 4.9451920891273344e+00 -1.5331449901285386e+00 1.5422248933026607e+01 0 0 0
229 1 2 1.1902060545508065e-02 7.6374165689695825e+00 -4.2787303078620109e-01 1.3789087620600851e+01 0 0 0
231 1 3 1.3938011118024618e-01 7.1311884741634124e+00 -2.4153140348832891e-01 1.2971186174309132e+01 0 0 0
232 1 1 3.8686889235411442e-02 7.3902350650410629e+00 -9.2330323704216521e-01 1.6129061455082905e+01 0 0 0
233 1 2 2.3669710408254252e-01 6.4795322682700718e+00 -1.2260763759561313e+00 1.7270443234967757e+01 0 0 0
234 1 4 -2.6024461561200479e-01 7.0200045508342832e+00 -1.2324575488186438e+00 1.8443710017342141e+01 0 0 0
235 1 4 -2.7262949439558548e-01 5.2378463910225568e+00 -1.4628121730842696e+00 1.7042800449953013e+01 0 0 0
239 1 1 1.1444238901966095e-03 2.9383471406797641e+00 4.5796173802230618e+00 1.7577301048356127e+00 0 0 1
240 1 2 1.2430796334030929e-02 4.2737431669960921e+00 4.7926688550923062e+00 1.9874341175112562e+00 0 0 1
241 1 3 1.4359589446643156e-01 4.5903862050810824e+00 4.8733749771633503e+00 2.9723138525088428e+00 0 0 0
242 1 3 1.5674423450049618e-01 4.7733435116878695e+00 5.0869064228740832e+00 1.0726243257384052e+00 0 0 1
243 1 2 2.1672897403143109e-02 2.0975595899319606e+00 4.3036856397593413e+00 2.8235598408986471e+00 0 0 0
244 1 3 1.5345216975395254e-01 1.0614243443793803e+00 3.9946504949772077e+00 2.5746937938113343e+00 0 0 0
245 1 3 1.4655668528685373e-01 2.6630033017922576e+00 4.3023343075690548e+00 3.7365022756383830e+00 0 0 0
246 1 1 3.3907922805523773e-02 2.3655601514877285e+00 4.6694518400968716e+00 4.1856211011151645e-01 0 0 1
247 1 2 2.2784823351408007e-01 3.8458853731871168e+00 1.3990415218871304e+00 2.2901113886666607e+01 0 0 0
248 1 4 -2.6932460427267707e-01 3.2463592687067235e+00 1.4825970701569076e+00 2.1748951833363343e+01 0 0 0
249 1 4 -2.9192900185791609e-01 5.1171979492090429e+00 1.5330204981715316e+00 2.3085015492768775e+01 0 0 0
250 1 2 2.3749511808043502e-01 8.8254732310086315e-01 4.6956275563027763e+00 2.7428665792903384e-01 0 0 1
251 1 4 -2.6940301148696444e-01 1.0346244605624981e+00 1.5178215090293734e+00 2.2796161831763825e+01 0 0 0
252 1 4 -2.8777866995440232e-01 1.1633296888683131e-01 4.4015330744615380e+00 1.2838867773660270e+00 0 0 1
253 1 1 -6.7859009982685591e-03 -2.1022801370642097e-01 1.7658365223923056e+00 1.9616541790625639e+01 0 0 0
254 1 2 5.2412065233373509e-03 1.1813769326980659e+00 1.7437610183852192e+00 1.9823790338739514e+01 0 0 0
255 1 3 1.4231185362783494e-01 1.4124365740909735e+00 1.5877014944290173e+00 2.0803032048461105e+01 0 0 0
256 1 3 1.5225789047540372e-01 1.6685837272373649e+00 1.6165489761620178e+00 1.8798673090521518e+01 0 0 0
259 1 3 1.4927615367574865e-01 -5.4174744595213187e-01 1.7060202096558754e+00 2.1644248539482945e+01 0 0 0
260 1 1 2.4704653254524939e-02 1.3172122265560217e+01 2.0373073684585776e+00 1.8306663918359071e+01 -1 0 0
261 1 2 2.1657585450690273e-01 1.9916089712293750e-01 2.2658761878218066e+00 1.7165504941925718e+01 0 0 0
262 1 4 -2.6198046703561878e-01 -3.0166895552019785e-01 2.7020463448412788e+00 1.6051552198116383e+01 0 0 0
263 1 4 -2.8053705750800056e-01 1.4774838521414568e+00 2.0587180999137109e+00 1.7209392705057120e+01 0 0 0
267 1 1 -2.5640256512647897e-03 3.0925978938921195e+00 3.8008009891385863e-01 8.9788648548854155e+00 0 0 0
268 1 2 6.2988238565199473e-03 1.7330259246933735e+00 1.9781408954499513e-01 8.7569951267738944e+00 1 0 0
269 1 3 1.3336922276717336e-01 1.5172228748086973e+00 3.5325874618502628e-01 7.7935262764753226e+00 1 0 0
270 1 3 1.5069207532309004e-01 1.1584984600317934e+00 -3.0092308505966503e-01 9.5591299373901730e+00 1 0 0
271 1 2 7.9263825654933666e-03 3.9150728768563634e+00 8.1824332571946568e-01 7.9362280440336779e+00 0 0 0
272 1 3 1.4775207480661356e-01 4.9225365620852450e+00 1.1193576243497829e+00 8.1496455339159510e+00 0 0 0
273 1 3 1.3984564077805139e-01 3.4253053374025164e+00 6.8156623014974138e-01 7.0511579910824977e+00 0 0 0
274 1 1 2.9154769471651451e-02 3.6026902778304084e+00 2.0638451042206363e-01 1.0301789732360838e+01 0 0 0
275 1 2 2.2947841787812004e-01 2.7168948726756077e+00 -1.8976380937971182e-01 1.1474579446730910e+01 0 0 0
276 1 4 -2.7549132527632586e-01 3.2113160295645162e+00 -1.3878907877333724e-01 1.2645279552726866e+01 0 0 0
277 1 4 -3.1309565322795824e-01 1.4655649028580635e+00 -3.8336058677708063e-01 1.1209130493379684e+01 1 0 0
278 1 2 2.2924780128246061e-01 5.0408042406832712e+00 4.8450150724456953e-01 1.0513179414233186e+01 0 0 0
279 1 4 -2.6608109136644198e-01 5.4769331641728547e+00 1.6559625411012391e-01 1.1706945327155688e+01 0 0 0
280 1 4 -2.9511006826108976e-01 5.8132011244523172e+00 8.6418704260657875e-01 9.5643323167863077e+00 0 0 0
286 1 3 1.5604728025173276e-01 1.9532643339056102e+00 -2.8867103459202270e-01 1.3994934625918010e+01 1 0 0
292 1 2 2.4239653135790368e-01 1.8289659338027358e+00 -7.1433410119692620e-01 1.6472072685963532e+01 1 0 0
293 1 4 -2.7721894008104120e-01 2.1344800153890993e+00 -8.5299044166193205e-01 1.7710828726611417e+01 0 0 0
294 1 4 -2.7011467423550917e-01 2.7413107265549650e+00 -6.0964336634180949e-01 1.5576507457512539e+01 0 0 0
313 1 2 1.0418111569091063e-02 5.7737334757213485e+00 1.7055871121713260e+00 2.0427203954534143e+01 0 0 0
314 1 3 1.4259622326942301e-01 4.8331068586669979e+00 1.3365396034044617e+00 2.0016051137173129e+01 0 0 0
315 1 3 1.4487676505970920e-01 6.1232484836494994e+00 1.8423001768949607e+00 2.1471652482477445e+01 0 0 0
316 1 1 3.1225580684840867e-02 6.3096113890144352e+00 1.9950113242586114e+00 1.8037524566345745e+01 0 0 0
320 1 2 2.3557267765737244e-01 4.8645194064481876e+00 2.0442995670984296e+00 1.7718939898224384e+01 0 0 0
321 1 4 -2.7022909375472481e-01 4.5716692949158357e+00 2.3913299755771615e+00 1.6526020642196876e+01 0 0 0
322 1 4 -2.8617143139534651e-01 3.9801889689725534e+00 1.8397070849709940e+00 1.8660488255715961e+01 0 0 0
337 1 1 -6.8463002656643374e-03 3.2376056379173139e+00 5.0879054029418249e+00 1.7874042409464202e+01 0 0 0
338 1 2 5.8190955460965116e-03 1.8523919464864540e+00 4.9391601039800195e+00 1.7588447512476250e+01 0 0 0
339 1 3 1.3526037449476055e-01 1.7105463584894782e+00 5.3688518677000348e+00 1.6670896596639928e+01 0 0 0
340 1 3 1.5075124625487529e-01 1.4297230814682380e+00 4.8624107240319594e+00 1.8573542323034559e+01 0 0 0
341 1 2 5.0084800783013472e-03 4.0777491976046871e+00 5.3282954084188994e+00 1.6840769308565363e+01 0 0 0
342 1 3 1.4747172591240643e-01 5.1318394699766401e+00 5.3060837291979350e+00 1.7104927925251353e+01 0 0 0
343 1 3 1.3966520524600642e-01 3.5616748585686895e+00 5.5451161998643625e+00 1.5936309045972026e+01 0 0 0
344 1 1 3.5114424364314958e-02 3.7597310619863520e+00 4.9373956834976429e+00 1.9209489199702709e+01 0 0 0
345 1 2 2.2883607688643276e-01 2.8731303515422582e+00 4.6782220355088482e+00 2.0371122707153724e+01 0 0 0
346 1 4 -2.5395692075337339e-01 3.4795558380966289e+00 4.5339261252722913e+00 2.1494586738079889e+01 0 0 0
347 1 4 -2.8222591487017368e-01 1.5954191624429797e+00 4.6061860671112207e+00 2.0245716886398178e+01 0 0 0
348 1 2 2.3505070667913872e-01 5.2268140869750113e+00 5.0362527667545978e+00 1.9445029532846398e+01 0 0 0
349 1 4 -2.7668402478601944e-01 5.5561962711066739e+00 4.9752172261229726e+00 2.0713908067586338e+01 0 0 0
379 1 1 -1.3590581611218205e-03 -1.7266225979439792e-01 6.6313100918640879e+00 1.1905589304845980e+01 0 0 0
380 1 2 2.1549421598438066e-02 -1.5203542750405594e+00 6.6535291707067516e+00 1.1584869966705064e+01 1 0 0
383 1 2 1.2631225530699147e-02 7.5169415533154371e-01 6.8130692632701209e+00 1.0911637848160415e+01 0 0 0
384 1 3 1.5203358192686930e-01 1.7351222316894992e+00 6.7119363800846790e+00 1.1119734887986841e+01 0 0 0
385 1 3 1.4428516631050939e-01 2.1151301299289405e-01 6.8820569767530664e+00 1.0016720269285253e+01 0 0 0
386 1 1 3.7024162377809658e-02 2.8633220350406319e-01 6.3257232625431383e+00 1.3273289651281857e+01 0 0 0
387 1 2 2.2630109536238527e-01 -6.4962692171145142e-01 6.0735259107407407e+00 1.4370420969336552e+01 0 0 0
388 1 4 -2.7598438990915963e-01 -9.8220302340149390e-02 5.9895012925086446e+00 1.5536216141854469e+01 0 0 0
390 1 2 2.3296578643794244e-01 1.7264189039849398e+00 6.3468164274738195e+00 1.3546022636680760e+01 0 0 0
391 1 4 -2.6705850947304549e-01 2.0837279941962650e+00 6.1387372933315545e+00 1.4780224875771321e+01 0 0 0
392 1 4 -2.9486293122091617e-01 2.5903426164079031e+00 6.5030258926763880e+00 1.2600267336128001e+01 0 0 0
405 1 4 -2.5633417376617917e-01 -1.3746625746935914e+00 5.2146562866838000e+00 2.0733339923890512e+01 0 0 0
406 1 4 -2.8596644495804635e-01 -7.3354116676461900e-01 5.5484569774437409e+00 1.8598409715125904e+01 0 0 0
436 1 2 1.4145689434044460e-02 5.2329814103333492e+00 6.1482285303697806e+00 1.1986068360707510e+01 0 0 0
437 1 3 1.4575349898490314e-01 4.9029767790142635e+00 6.3845283807233022e+00 1.0978972207370168e+01 0 0 0
438 1 3 1.5149072449694034e-01 4.7841529046369820e+00 5.9752774883121385e+00 1.2912243296572774e+01 0 0 0
445 1 4 -2.9496189867528688e-01 5.2442849170444434e+00 5.7978891943147035e+00 1.4551625151872258e+01 0 0 0
5 1 2 1.8073353812716641e-02 7.1451870964722461e+00 1.7110514085042161e+00 1.9655742027874492e+00 0 0 0
6 1 3 1.5577634885942812e-01 8.1777118942755838e+00 1.4631770965661870e+00 2.2076551744485502e+00 0 0 0
12 1 2 2.3068891817977338e-01 8.2110530414688885e+00 1.2359148074935749e+00 4.6012798688582492e+00 0 0 0
13 1 4 -2.6520739558686868e-01 8.6159754540345830e+00 1.1829848387306376e+00 5.8322995566253120e+00 0 0 0
14 1 4 -2.8176967564493527e-01 9.0672051289479327e+00 1.4185437972061399e+00 3.6357766839232930e+00 0 0 0
75 1 2 8.3446574301113824e-03 9.2231194917052104e+00 2.5700826660203040e+00 1.4745490378837090e+01 0 0 0
76 1 3 1.5607883929511496e-01 8.2147211989351678e+00 2.3689072024427165e+00 1.4449199363512800e+01 0 0 0
82 1 2 2.2849689828229885e-01 8.0296716275714335e+00 2.9419008112779550e+00 1.2129268081518413e+01 0 0 0
83 1 4 -2.7044185033496143e-01 7.5982135293973911e+00 3.1762232741564311e+00 1.0944484758591425e+01 0 0 0
84 1 4 -2.8339899095475629e-01 7.2339379841627789e+00 2.5253315829357321e+00 1.3079555229013087e+01 0 0 0
85 1 1 -2.7955956261033477e-03 6.5722388893816657e+00 3.7213144111343466e+00 7.6574500691999567e+00 0 0 0
86 1 2 2.5398272668684524e-03 7.9229546286863393e+00 3.6957047896740405e+00 7.9128946636544431e+00 0 0 0
87 1 3 1.3875737076578026e-01 8.1821892794964608e+00 3.5825558210369453e+00 8.9317667233139151e+00 0 0 0
88 1 3 1.5079021083742605e-01 8.4541036220615879e+00 3.9317582623853409e+00 7.0890066030328667e+00 0 0 0
91 1 3 1.4479172723052156e-01 6.2675577421915136e+00 3.1335494899228555e+00 9.5133193415101100e+00 0 0 0
93 1 2 2.3173592674217802e-01 6.9119408301532976e+00 4.1968289241103154e+00 5.1398754068914689e+00 0 0 0
95 1 4 -2.8132212906813936e-01 8.1458866398054006e+00 4.4724623694411028e+00 5.3352020303371619e+00 0 0 0
99 1 1 -7.5131581893518005e-03 1.0319137531629899e+01 -1.6077635073276038e+00 2.0727577615287835e+01 0 0 -1
100 1 2 9.2723654118520710e-03 8.9816269835944720e+00 -1.7485679635271250e+00 2.0387546477383836e+01 0 0 -1
101 1 3 1.4057989994868814e-01 8.8968777981483260e+00 -1.5748235701313273e+00 1.9377980648888801e+01 0 0 0
102 1 3 1.5128262821049671e-01 8.3930439645953392e+00 -2.0251052299088528e+00 2.1179745449339272e+01 0 0 -1
105 1 3 1.3931579049372836e-01 1.0837524099853228e+01 -1.4423160672267494e+00 1.8767704143306858e+01 0 0 0
106 1 1 2.6719433900408505e-02 1.0797862846567892e+01 -1.7379520639048174e+00 2.2069375073656062e+01 0 0 -1
107 1 2 2.2744724206747408e-01 9.8428719554121589e+00 -1.9317089195800357e+00 2.3160208676634213e+01 0 0 -1
108 1 4 -2.5592430057145565e-01 9.7354313278894669e+00 1.6155953145576749e+00 7.2937374916535958e-01 0 0 0
109 1 4 -2.7047047753273945e-01 8.5669689248822483e+00 -1.9729741509065493e+00 2.2946070210811897e+01 0 0 -1
125 1 4 -2.5949134250106470e-01 5.2768571029062166e+00 6.5778035773610997e+00 8.9417840347099755e+00 0 0 0
126 1 4 -2.9185169699742741e-01 5.9437462135932417e+00 6.8813444470140084e+00 6.8060309718001104e+00 0 0 0
170 1 2 1.4050141791891412e-02 8.5536876901631089e+00 7.1348860139302950e+00 6.0695784824601446e+00 0 0 0
171 1 3 1.3648367495071376e-01 8.2265377474695676e+00 7.4128072822166322e+00 5.0356711446801228e+00 0 0 0
172 1 3 1.5659502265917269e-01 8.0172170452557534e+00 7.1475794961818622e+00 6.9699840321009638e+00 0 0 0
179 1 4 -2.8866014611578933e-01 8.4149211105869277e+00 6.7914299127542597e+00 8.5979573998207357e+00 0 0 0
211 1 1 -9.9342544418303987e-03 6.3629686143757942e+00 8.1730629752680048e+00 8.8931728139510224e-03 0 0 0
215 1 2 1.6905926303510604e-02 7.7479450075515199e+00 4.8504450805774377e+00 2.2496504989155767e+01 0 0 0
216 1 3 1.5202507301021256e-01 8.6658300350784945e+00 5.2468353759606252e+00 2.2772509345106243e+01 0 0 0
217 1 3 1.4704616250815594e-01 7.0602574304887149e+00 4.9984168721747988e+00 2.1704093122989775e+01 0 0 0
218 1 1 2.6016867090745542e-02 6.9459443092592235e+00 8.1399979594528968e+00 1.3104074678606263e+00 0 0 0
219 1 2 2.2363512498354543e-01 6.1460639194787445e+00 7.8781974794968921e+00 2.5207856532091446e+00 0 0 0
220 1 4 -2.6197035509875072e-01 6.7926603393797436e+00 7.5776252292212964e+00 3.6090314102573240e+00 0 0 0
222 1 2 2.2962540433301043e-01 8.4428273942328307e+00 8.2683980516918751e+00 1.4712954345276259e+00 0 0 0
223 1 4 -2.6254588697669173e-01 8.8518271889267570e+00 8.0654731460833737e+00 2.6491444580015835e+00 0 0 0
230 1 3 1.5169729090133405e-01 8.6708931694104763e+00 -2.4210448912145277e-01 1.3966412115944706e+01 0 0 0
236 1 2 2.4039814761238021e-01 8.8108434627180330e+00 -6.2365801514838393e-01 1.6365455745189671e+01 0 0 0
237 1 4 -2.6376327101251862e-01 9.3113090732471040e+00 -1.0239081583555059e+00 1.7488248431675892e+01 0 0 0
238 1 4 -2.8308742260216324e-01 9.5461635694592282e+00 -2.7162223519692241e-01 1.5362117108832809e+01 0 0 0
299 1 2 1.2656272332300430e-02 8.9754262960887079e+00 4.7697107735446806e+00 2.8269695985195975e+00 0 0 0
300 1 3 1.5435373651961093e-01 7.9366258050011833e+00 4.9725258787106110e+00 2.6137868192149742e+00 0 0 0
302 1 1 2.8958552068210963e-02 9.2936619676131684e+00 5.1129025739823382e+00 4.6795957332891436e-01 0 0 1
306 1 2 2.3367692920207694e-01 7.7930216582702467e+00 4.8611310962855887e+00 3.0839864556619412e-01 0 0 1
307 1 4 -2.5226018958833396e-01 8.0827842583281395e+00 1.2382071553286336e+00 2.2721055482061466e+01 0 0 0
308 1 4 -2.8158041039846843e-01 6.9311967188009254e+00 4.7277760907713526e+00 1.2465009487593037e+00 0 0 1
309 1 1 -3.3905881156088453e-03 6.6955148673788170e+00 2.0247016675101230e+00 1.9440525902639088e+01 0 0 0
310 1 2 1.3967580988979978e-02 7.9432129038294566e+00 2.3388600306544549e+00 1.9823596233214523e+01 0 0 0
311 1 3 1.4198539609482899e-01 8.1674454540313448e+00 2.0615581356978625e+00 2.0823768930107420e+01 0 0 0
312 1 3 1.5633476839769489e-01 8.5042767334298208e+00 2.7154208457736391e+00 1.8861119982442936e+01 0 0 0
317 1 2 2.2398286843961401e-01 7.3068321440502810e+00 2.2151215467102054e+00 1.6980981106526592e+01 0 0 0
318 1 4 -2.6530205231087489e-01 6.9131782169269762e+00 1.9849559848308971e+00 1.5772418056583115e+01 0 0 0
319 1 4 -3.0020397941256660e-01 8.5253407827045198e+00 2.6086531894740381e+00 1.7285453972551807e+01 0 0 0
323 1 1 3.0213452916576754e-03 9.9963399346832489e+00 7.1840426199466245e-01 9.0225548499132913e+00 0 0 0
324 1 2 1.2868074012461157e-02 8.6423831238663826e+00 4.7338912833656965e-01 8.8298245495498904e+00 0 0 0
325 1 3 1.3450617052077407e-01 8.3290015368138484e+00 8.7912374818884587e-01 7.9212615521160732e+00 0 0 0
326 1 3 1.5842586922148236e-01 8.0614879046056913e+00 1.4551349587054396e-01 9.6995578879311459e+00 0 0 0
329 1 3 1.4348658856537003e-01 1.0196203465207876e+01 1.3490507623664285e+00 7.0958025796381312e+00 0 0 0
330 1 1 2.7847962195827688e-02 1.0641886293460118e+01 4.0365103416182269e-01 1.0285166801077098e+01 0 0 0
331 1 2 2.2512784099509914e-01 9.8828946331114373e+00 -2.1997830520661354e-01 1.1346882565819010e+01 0 0 0
332 1 4 -2.6721874208245461e-01 1.0530604038426580e+01 -6.6409684144382330e-01 1.2390403464296178e+01 0 0 0
333 1 4 -2.8652303557541181e-01 8.5746147583650405e+00 -2.6143643080841872e-01 1.1254684912155389e+01 0 0 0
350 1 4 -2.9016944677593270e-01 6.0660585177119177e+00 5.3227937778577870e+00 1.8515277764005646e+01 0 0 0
394 1 2 1.0813553629204612e-02 9.0818426530002654e+00 5.1300019044576617e+00 1.7390505911102615e+01 0 0 0
395 1 3 1.3874235599326895e-01 8.8974418530307009e+00 5.2709922754116274e+00 1.6393699583128111e+01 0 0 0
396 1 3 1.5378535447052116e-01 8.4284746759103992e+00 4.8815752312374103e+00 1.8221317785130907e+01 0 0 0
403 1 4 -2.8364464995322081e-01 8.5685305043831264e+00 4.9884286140873799e+00 1.9869087751868975e+01 0 0 0
435 1 1 -3.6301916189701092e-03 6.6045605733590227e+00 6.2020576762036530e+00 1.2080297343606050e+01 0 0 0
439 1 2 1.1888644849957053e-02 7.3634962232974814e+00 6.3534617496095800e+00 1.0924202940689765e+01 0 0 0
440 1 3 1.5368705622792678e-01 8.4308621623516125e+00 6.3150040522290647e+00 1.1070922694620792e+01 0 0 0
441 1 3 1.4621761985690440e-01 6.7561413185174155e+00 6.6322701621121665e+00 1.0089988255969498e+01 0 0 0
442 1 1 2.6216840659948337e-02 7.3237594200750094e+00 6.0530441550948568e+00 1.3308013950097497e+01 0 0 0
443 1 2 2.2527997789419257e-01 6.5517619886258611e+00 5.7696034450989933e+00 1.4533117950924570e+01 0 0 0
444 1 4 -2.7652729624774741e-01 7.1886994564675986e+00 5.4409206844758158e+00 1.5584835360677955e+01 0 0 0
446 1 2 2.3290326000411446e-01 8.7972158963087352e+00 6.2680856583796762e+00 1.3444390290323728e+01 0 0 0
447 1 4 -2.5347308341238051e-01 9.2805561738376667e+00 6.4408282074721628e+00 1.4621785658210234e+01 0 0 0
156 1 2 1.6156820932349349e-02 -1.9435461038295676e+00 8.3240795615396266e+00 7.8787170281409802e-02 1 0 0
33 1 2 1.3783973168771273e-02 1.2763790813352434e+01 4.2319771161295723e+00 8.7573761500135952e+00 -1 0 0
34 1 3 1.5380445395419115e-01 1.1695936254739745e+01 4.3246011724774043e+00 8.4554877616985937e+00 -1 0 0
40 1 2 2.3695340666247622e-01 1.1402137048550657e+01 4.0839066290348169e+00 6.1665516215476153e+00 -1 0 0
41 1 4 -2.6049020431145287e-01 1.1025610904126916e+01 3.9639717204309277e+00 4.9623038126089378e+00 0 0 0
42 1 4 -2.9197115047515876e-01 1.0645814450972358e+01 4.1125334512213074e+00 7.2066089231323538e+00 0 0 0
57 1 1 -8.1620223432894712e-06 1.3228356923734314e+01 1.3822207267106830e+00 3.1236168838857261e+00 0 0 0
58 1 2 1.3688638406325473e-02 1.1889365702472462e+01 1.3333015037201359e+00 2.9115947602640877e+00 0 0 0
59 1 3 1.4415511974102738e-01 1.1579010915663103e+01 1.4625232113194080e+00 1.9229124826278969e+00 0 0 0
60 1 3 1.5659102780750661e-01 1.1253655531352647e+01 1.0036860599385879e+00 3.6666089992399700e+00 0 0 0
65 1 2 2.2618513366926341e-01 1.2790974220589678e+01 1.0331327532773233e+00 5.6050299248179334e+00 0 0 0
66 1 4 -2.6336950902072792e-01 1.3302628563175666e+01 1.0670884909047471e+00 6.7832706397494240e+00 0 0 0
67 1 4 -2.8781274261853551e-01 1.1516053802292820e+01 8.5215982889320385e-01 5.3970303717970234e+00 0 0 0
71 1 1 -8.2020811243840516e-03 9.9813627864960708e+00 2.9996605670809995e+00 1.3682727251591341e+01 0 0 0
72 1 2 5.3574031302293310e-03 1.1335330128403054e+01 3.2463888832144461e+00 1.3977528537638053e+01 -1 0 0
73 1 3 1.3506067337701522e-01 1.1578938474371681e+01 2.8688376610692519e+00 1.4944698976809406e+01 -1 0 0
77 1 3 1.4247400428269072e-01 9.6776693521035977e+00 2.6624236990308363e+00 1.5667513751059092e+01 0 0 0
78 1 1 3.3403656636720735e-02 9.4681257362250015e+00 3.1891270279684987e+00 1.2357409322572172e+01 0 0 0
79 1 2 2.4081327821978382e-01 1.0397905574462802e+01 3.5639322705906480e+00 1.1241836147383843e+01 0 0 0
80 1 4 -2.6385899023422466e-01 9.9398084973024634e+00 3.5342917278286619e+00 1.0055934832730880e+01 0 0 0
103 1 2 -7.2136554873022951e-06 1.1247904816356215e+01 -1.4479676336032197e+00 1.9704950818360722e+01 0 0 0
104 1 3 1.4389670847101832e-01 1.2226811395335417e+01 -1.2193903107505510e+00 2.0013062189591629e+01 0 0 0
110 1 2 2.3235521119692096e-01 1.2265268014476437e+01 -1.5947189459557944e+00 2.2406674147531483e+01 0 0 -1
111 1 4 -2.7125731454098589e-01 1.1980186385189754e+01 1.8732994520842805e+00 -4.4896875615692000e-03 0 0 0
112 1 4 -2.9503103701031252e-01 1.3103997687770995e+01 -1.3864275998023574e+00 2.1461326687645631e+01 0 0 -1
157 1 3 1.4340305483331994e-01 1.2327304662933898e+01 4.9917309717148273e+00 2.2743879454147290e+01 0 0 0
169 1 1 -4.9852261370717521e-03 9.8779784255011638e+00 7.3496649125777083e+00 6.2051747858568538e+00 0 0 0