ITEM: TIMESTEP
0
ITEM: NUMBER OF ATOMS
672
ITEM: BOX BOUNDS xy xz yz pp pp pp
0.0000000000000000e+00 2.9982000351000000e+01 0.0000000000000000e+00
0.0000000000000000e+00 1.2154000282300000e+01 0.0000000000000000e+00
0.0000000000000000e+00 2.0017000198400002e+01 0.0000000000000000e+00
ITEM: ATOMS id type xs ys zs
1 1 0.142499 0.0703279 0.155517
2 1 0.642499 0.0703279 0.155517
3 1 0.357501 0.929672 0.655517
4 1 0.857501 0.929672 0.655517
5 1 0.392499 0.929672 0.155517
6 1 0.892499 0.929672 0.155517
7 1 0.107501 0.0703279 0.655517
8 1 0.607501 0.0703278 0.655517
9 1 0.142499 0.570327 0.155518
10 1 0.642499 0.570327 0.155518
11 1 0.357501 0.429673 0.655518
12 1 0.857501 0.429673 0.655518
13 1 0.392499 0.429673 0.155518
14 1 0.892499 0.429673 0.155518
15 1 0.107501 0.570327 0.655518
16 1 0.607501 0.570327 0.655518
17 1 0.189027 0.045689 0.151874
18 1 0.689027 0.0456889 0.151874
19 1 0.310973 0.954311 0.651874
20 1 0.810973 0.954311 0.651874
21 1 0.439027 0.954311 0.151874
22 1 0.939027 0.954311 0.151874
23 1 0.0609732 0.0456889 0.651874
24 1 0.560973 0.0456889 0.651874
25 1 0.189027 0.545688 0.151874
26 1 0.689027 0.545688 0.151874
27 1 0.310973 0.454312 0.651874
28 1 0.810973 0.454312 0.651874
29 1 0.439027 0.454312 0.151874
30 1 0.939027 0.454312 0.151874
31 1 0.0609731 0.545688 0.651874
32 1 0.560973 0.545688 0.651874
33 1 0.214979 0.114513 0.109867
34 1 0.714979 0.114513 0.109867
35 1 0.285021 0.885487 0.609867
36 1 0.785021 0.885487 0.609867
37 1 0.464979 0.885487 0.109867
38 1 0.964979 0.885487 0.109867
39 1 0.0350213 0.114513 0.609867
40 1 0.535021 0.114513 0.609867
41 1 0.214979 0.614514 0.109866
42 1 0.714979 0.614515 0.109866
43 1 0.285021 0.385486 0.609866
44 1 0.785021 0.385485 0.609866
45 1 0.464979 0.385486 0.109866
46 1 0.964979 0.385485 0.109866
47 1 0.0350211 0.614515 0.609866
48 1 0.535021 0.614515 0.609866
49 1 0.195097 0.202066 0.0726532
50 1 0.695097 0.202066 0.0726532
51 1 0.304903 0.797934 0.572653
52 1 0.804903 0.797934 0.572653
53 1 0.445097 0.797934 0.0726532
54 1 0.945097 0.797934 0.0726532
55 1 0.0549028 0.202066 0.572653
56 1 0.554903 0.202066 0.572653
57 1 0.195097 0.702065 0.0726532
58 1 0.695097 0.702065 0.0726532
59 1 0.304903 0.297935 0.572653
60 1 0.804903 0.297935 0.572653
61 1 0.445097 0.297935 0.0726532
62 1 0.945097 0.297935 0.0726532
63 1 0.054903 0.702065 0.572653
64 1 0.554903 0.702065 0.572653
65 1 0.148264 0.221897 0.078052
66 1 0.648264 0.221898 0.078052
67 1 0.351736 0.778103 0.578052
68 1 0.851736 0.778102 0.578052
69 1 0.398264 0.778103 0.0780521
70 1 0.898264 0.778102 0.078052
71 1 0.101736 0.221898 0.578052
72 1 0.601736 0.221898 0.578052
73 1 0.148265 0.721898 0.0780514
74 1 0.648265 0.721898 0.0780514
75 1 0.351735 0.278102 0.578051
76 1 0.851735 0.278102 0.578051
77 1 0.398265 0.278102 0.0780514
78 1 0.898265 0.278102 0.0780514
79 1 0.101735 0.721898 0.578051
80 1 0.601735 0.721898 0.578051
81 1 0.120284 0.155157 0.118684
82 1 0.620284 0.155157 0.118684
83 1 0.379716 0.844843 0.618684
84 1 0.879716 0.844843 0.618684
85 1 0.370284 0.844843 0.118684
86 1 0.870284 0.844843 0.118684
87 1 0.129716 0.155157 0.618684
88 1 0.629716 0.155157 0.618684
89 1 0.120283 0.655157 0.118684
90 1 0.620283 0.655157 0.118684
91 1 0.379717 0.344843 0.618684
92 1 0.879717 0.344843 0.618684
93 1 0.370283 0.344843 0.118684
94 1 0.870283 0.344843 0.118684
95 1 0.129717 0.655157 0.618684
96 1 0.629717 0.655157 0.618684
97 1 0.115983 0.998712 0.205837
98 1 0.615983 0.998712 0.205837
99 1 0.384017 0.00128805 0.705837
100 1 0.884017 0.00128807 0.705837
101 1 0.365983 0.00128805 0.205837
102 1 0.865983 0.00128806 0.205837
103 1 0.134017 0.998712 0.705837
104 1 0.634017 0.998712 0.705837
105 1 0.115983 0.498712 0.205837
106 1 0.615983 0.498712 0.205837
107 1 0.384017 0.501288 0.705837
108 1 0.884017 0.501288 0.705837
109 1 0.365983 0.501288 0.205837
110 1 0.865983 0.501288 0.205837
111 1 0.134017 0.498712 0.705837
112 1 0.634017 0.498712 0.705837
113 1 0.264109 0.183056 0.844712
114 1 0.764109 0.183056 0.844712
115 1 0.235891 0.816944 0.344712
116 1 0.735891 0.816944 0.344712
117 1 0.0141091 0.816944 0.844712
118 1 0.514109 0.816944 0.844712
119 1 0.485891 0.183056 0.344712
120 1 0.985891 0.183056 0.344712
121 1 0.264109 0.683056 0.844712
122 1 0.764109 0.683056 0.844712
123 1 0.235891 0.316944 0.344712
124 1 0.735891 0.316944 0.344712
125 1 0.0141092 0.316944 0.844712
126 1 0.514109 0.316944 0.844712
127 1 0.485891 0.683056 0.344712
128 1 0.985891 0.683056 0.344712
129 1 0.311042 0.203575 0.847788
130 1 0.811041 0.203575 0.847788
131 1 0.188959 0.796425 0.347788
132 1 0.688959 0.796425 0.347788
133 1 0.0610415 0.796425 0.847788
134 1 0.561041 0.796425 0.847788
135 1 0.438959 0.203575 0.347788
136 1 0.938959 0.203575 0.347788
137 1 0.311042 0.703575 0.847788
138 1 0.811041 0.703575 0.847788
139 1 0.188959 0.296425 0.347788
140 1 0.688959 0.296425 0.347788
141 1 0.0610415 0.296425 0.847788
142 1 0.561041 0.296425 0.847788
143 1 0.438959 0.703575 0.347788
144 1 0.938959 0.703575 0.347788
145 1 0.336605 0.132803 0.889664
146 1 0.836605 0.132803 0.889664
147 1 0.163395 0.867197 0.389664
148 1 0.663395 0.867197 0.389664
149 1 0.0866046 0.867197 0.889664
150 1 0.586605 0.867197 0.889664
151 1 0.413395 0.132803 0.389664
152 1 0.913395 0.132803 0.389664
153 1 0.336605 0.632803 0.889664
154 1 0.836605 0.632803 0.889664
155 1 0.163395 0.367197 0.389664
156 1 0.663395 0.367197 0.389664
157 1 0.0866046 0.367197 0.889664
158 1 0.586605 0.367197 0.889664
159 1 0.413395 0.632803 0.389664
160 1 0.913395 0.632803 0.389664
161 1 0.317177 0.0426424 0.924853
162 1 0.817177 0.0426424 0.924853
163 1 0.182823 0.957358 0.424853
164 1 0.682823 0.957358 0.424853
165 1 0.0671767 0.957358 0.924853
166 1 0.567177 0.957358 0.924853
167 1 0.432823 0.0426424 0.424853
168 1 0.932823 0.0426424 0.424853
169 1 0.317177 0.542642 0.924853
170 1 0.817177 0.542642 0.924853
171 1 0.182823 0.457358 0.424853
172 1 0.682823 0.457358 0.424853
173 1 0.0671767 0.457358 0.924853
174 1 0.567177 0.457358 0.924853
175 1 0.432823 0.542642 0.424853
176 1 0.932823 0.542642 0.424853
177 1 0.270441 0.0236401 0.918901
178 1 0.770441 0.0236401 0.918901
179 1 0.229559 0.97636 0.418901
180 1 0.729559 0.97636 0.418901
181 1 0.0204413 0.97636 0.918901
182 1 0.520441 0.97636 0.918901
183 1 0.479559 0.0236401 0.418901
184 1 0.979559 0.0236401 0.418901
185 1 0.270441 0.52364 0.918901
186 1 0.770441 0.52364 0.918901
187 1 0.229559 0.47636 0.418901
188 1 0.729559 0.47636 0.418901
189 1 0.0204413 0.47636 0.918901
190 1 0.520441 0.47636 0.918901
191 1 0.479559 0.52364 0.418901
192 1 0.979559 0.52364 0.418901
193 1 0.242776 0.0961172 0.88106
194 1 0.742776 0.0961172 0.88106
195 1 0.257224 0.903883 0.38106
196 1 0.757224 0.903883 0.38106
197 1 0.492776 0.903883 0.88106
198 1 0.992776 0.903883 0.88106
199 1 0.00722417 0.0961172 0.38106
200 1 0.507224 0.0961172 0.38106
201 1 0.242776 0.596117 0.88106
202 1 0.742776 0.596117 0.88106
203 1 0.257224 0.403883 0.38106
204 1 0.757224 0.403883 0.38106
205 1 0.492776 0.403883 0.88106
206 1 0.992776 0.403883 0.88106
207 1 0.00722421 0.596117 0.38106
208 1 0.507224 0.596117 0.38106
209 1 0.231864 0.249882 0.79957
210 1 0.731864 0.249882 0.79957
211 1 0.268136 0.750118 0.29957
212 1 0.768136 0.750118 0.29957
213 1 0.481864 0.750118 0.79957
214 1 0.981864 0.750118 0.79957
215 1 0.0181356 0.249882 0.29957
216 1 0.518136 0.249882 0.29957
217 1 0.231864 0.749882 0.79957
218 1 0.731864 0.749882 0.79957
219 1 0.268136 0.250118 0.29957
220 1 0.768136 0.250118 0.29957
221 1 0.481864 0.250118 0.79957
222 1 0.981864 0.250118 0.79957
223 1 0.0181356 0.749882 0.29957
224 1 0.518136 0.749882 0.29957
225 2 0.211443 0.957371 0.193255
226 2 0.711443 0.957371 0.193255
227 2 0.288557 0.0426293 0.693255
228 2 0.788557 0.0426296 0.693255
229 2 0.461443 0.0426292 0.193255
230 2 0.961443 0.0426294 0.193255
231 2 0.0385571 0.957371 0.693255
232 2 0.538557 0.95737 0.693255
233 2 0.211443 0.457368 0.193256
234 2 0.711444 0.457368 0.193256
235 2 0.288556 0.542632 0.693256
236 2 0.788556 0.542632 0.693256
237 2 0.461443 0.542631 0.193256
238 2 0.961444 0.542632 0.193256
239 2 0.0385565 0.457368 0.693256
240 2 0.538556 0.457368 0.693256
241 2 0.223262 0.272343 0.0269053
242 2 0.723262 0.272343 0.0269053
243 2 0.276738 0.727657 0.526905
244 2 0.776738 0.727657 0.526905
245 2 0.473262 0.727657 0.0269053
246 2 0.973262 0.727657 0.0269053
247 2 0.0267381 0.272343 0.526905
248 2 0.526738 0.272343 0.526905
249 2 0.223262 0.772343 0.0269054
250 2 0.723262 0.772342 0.0269055
251 2 0.276738 0.227657 0.526905
252 2 0.776738 0.227658 0.526905
253 2 0.473262 0.227657 0.0269055
254 2 0.973262 0.227658 0.0269055
255 2 0.0267383 0.772342 0.526905
256 2 0.526738 0.772342 0.526905
257 2 0.0703976 0.175452 0.122024
258 2 0.570398 0.175452 0.122024
259 2 0.429602 0.824548 0.622024
260 2 0.929602 0.824548 0.622024
261 2 0.320398 0.824548 0.122024
262 2 0.820398 0.824548 0.122024
263 2 0.179602 0.175452 0.622024
264 2 0.679602 0.175452 0.622024
265 2 0.0703969 0.675453 0.122024
266 2 0.570397 0.675453 0.122024
267 2 0.429603 0.324547 0.622024
268 2 0.929603 0.324547 0.622024
269 2 0.320397 0.324547 0.122024
270 2 0.820397 0.324547 0.122024
271 2 0.179603 0.675453 0.622024
272 2 0.679603 0.675453 0.622024
273 2 0.334829 0.290096 0.806915
274 2 0.834829 0.290096 0.806916
275 2 0.165171 0.709904 0.306916
276 2 0.665171 0.709904 0.306916
277 2 0.0848291 0.709904 0.806916
278 2 0.584829 0.709904 0.806916
279 2 0.415171 0.290096 0.306916
280 2 0.915171 0.290096 0.306916
281 2 0.334829 0.790096 0.806916
282 2 0.834829 0.790096 0.806916
283 2 0.165171 0.209904 0.306916
284 2 0.665171 0.209904 0.306916
285 2 0.0848291 0.209904 0.806916
286 2 0.584829 0.209904 0.806916
287 2 0.415171 0.790096 0.306916
288 2 0.915171 0.790096 0.306916
289 2 0.345487 0.968364 0.968688
290 2 0.845487 0.968364 0.968688
291 2 0.154513 0.0316358 0.468688
292 2 0.654513 0.0316358 0.468688
293 2 0.0954873 0.0316358 0.968688
294 2 0.595487 0.0316358 0.968688
295 2 0.404513 0.968364 0.468688
296 2 0.904513 0.968364 0.468688
297 2 0.345487 0.468364 0.968688
298 2 0.845487 0.468364 0.968688
299 2 0.154513 0.531636 0.468688
300 2 0.654513 0.531636 0.468688
301 2 0.0954873 0.531636 0.968688
302 2 0.595487 0.531636 0.968688
303 2 0.404513 0.468364 0.468688
304 2 0.904513 0.468364 0.468688
305 2 0.192887 0.0777433 0.88001
306 2 0.692887 0.0777433 0.88001
307 2 0.307113 0.922257 0.38001
308 2 0.807113 0.922257 0.38001
309 2 0.442887 0.922257 0.88001
310 2 0.942887 0.922257 0.88001
311 2 0.0571132 0.0777433 0.38001
312 2 0.557113 0.0777433 0.38001
313 2 0.192887 0.577743 0.88001
314 2 0.692887 0.577743 0.88001
315 2 0.307113 0.422257 0.38001
316 2 0.807113 0.422257 0.38001
317 2 0.442887 0.422257 0.88001
318 2 0.942887 0.422257 0.88001
319 2 0.0571132 0.577743 0.38001
320 2 0.557113 0.577743 0.38001
321 3 0.193473 0.861546 0.194684
322 3 0.693473 0.861546 0.194684
323 3 0.306527 0.138454 0.694684
324 3 0.806527 0.138454 0.694684
325 3 0.443473 0.138454 0.194684
326 3 0.943473 0.138454 0.194684
327 3 0.0565273 0.861546 0.694684
328 3 0.556527 0.861546 0.694684
329 3 0.193473 0.361547 0.194684
330 3 0.693473 0.361548 0.194684
331 3 0.306527 0.638453 0.694684
332 3 0.806527 0.638452 0.694684
333 3 0.443473 0.638453 0.194684
334 3 0.943473 0.638452 0.194684
335 3 0.056527 0.361548 0.694684
336 3 0.556527 0.361548 0.694684
337 3 0.247858 0.984013 0.222951
338 3 0.747858 0.984013 0.222951
339 3 0.252142 0.0159868 0.722951
340 3 0.752142 0.0159868 0.722951
341 3 0.497858 0.0159868 0.222951
342 3 0.997858 0.0159868 0.222951
343 3 0.0021424 0.984013 0.722951
344 3 0.502142 0.984013 0.722951
345 3 0.247857 0.484013 0.222951
346 3 0.747857 0.484013 0.222951
347 3 0.252143 0.515987 0.722951
348 3 0.752143 0.515987 0.722951
349 3 0.497857 0.515987 0.222951
350 3 0.997857 0.515987 0.222951
351 3 0.00214301 0.484013 0.722951
352 3 0.502143 0.484013 0.722951
353 3 0.25968 0.230467 0.00492728
354 3 0.75968 0.230467 0.00492727
355 3 0.24032 0.769533 0.504927
356 3 0.74032 0.769533 0.504927
357 3 0.00967955 0.769533 0.00492728
358 3 0.50968 0.769533 0.00492727
359 3 0.49032 0.230467 0.504927
360 3 0.99032 0.230467 0.504927
361 3 0.25968 0.730467 0.00492731
362 3 0.75968 0.730467 0.00492729
363 3 0.24032 0.269533 0.504927
364 3 0.74032 0.269533 0.504927
365 3 0.00967951 0.269533 0.0049273
366 3 0.50968 0.269533 0.00492729
367 3 0.49032 0.730467 0.504927
368 3 0.99032 0.730467 0.504927
369 3 0.20836 0.368257 0.0122866
370 3 0.70836 0.368257 0.0122866
371 3 0.29164 0.631743 0.512287
372 3 0.79164 0.631743 0.512287
373 3 0.45836 0.631743 0.0122866
374 3 0.95836 0.631743 0.0122866
375 3 0.0416405 0.368257 0.512287
376 3 0.54164 0.368257 0.512287
377 3 0.20836 0.868257 0.0122867
378 3 0.70836 0.868257 0.0122867
379 3 0.29164 0.131743 0.512287
380 3 0.79164 0.131743 0.512287
381 3 0.45836 0.131743 0.0122867
382 3 0.95836 0.131743 0.0122867
383 3 0.0416404 0.868257 0.512287
384 3 0.54164 0.868257 0.512287
385 3 0.0576273 0.27344 0.135922
386 3 0.557627 0.27344 0.135922
387 3 0.442373 0.72656 0.635922
388 3 0.942373 0.72656 0.635922
389 3 0.307627 0.72656 0.135922
390 3 0.807627 0.72656 0.135922
391 3 0.192373 0.27344 0.635922
392 3 0.692373 0.27344 0.635922
393 3 0.0576273 0.77344 0.135922
394 3 0.557627 0.77344 0.135922
395 3 0.442373 0.22656 0.635922
396 3 0.942373 0.226561 0.635922
397 3 0.307627 0.22656 0.135922
398 3 0.807627 0.22656 0.135922
399 3 0.192373 0.77344 0.635922
400 3 0.692373 0.773439 0.635922
401 3 0.0447541 0.0930779 0.111176
402 3 0.544754 0.0930779 0.111176
403 3 0.455246 0.906922 0.611176
404 3 0.955246 0.906922 0.611176
405 3 0.294754 0.906922 0.111176
406 3 0.794754 0.906922 0.111176
407 3 0.205246 0.0930779 0.611176
408 3 0.705246 0.093078 0.611176
409 3 0.0447542 0.593078 0.111176
410 3 0.544754 0.593078 0.111176
411 3 0.455246 0.406922 0.611176
412 3 0.955246 0.406922 0.611176
413 3 0.294754 0.406922 0.111176
414 3 0.794754 0.406922 0.111176
415 3 0.205246 0.593078 0.611176
416 3 0.705246 0.593079 0.611176
417 3 0.316986 0.385835 0.804063
418 3 0.816986 0.385835 0.804063
419 3 0.183014 0.614165 0.304063
420 3 0.683014 0.614165 0.304063
421 3 0.0669856 0.614165 0.804063
422 3 0.566986 0.614165 0.804063
423 3 0.433014 0.385835 0.304063
424 3 0.933014 0.385835 0.304063
425 3 0.316986 0.885835 0.804063
426 3 0.816986 0.885835 0.804063
427 3 0.183014 0.114165 0.304063
428 3 0.683014 0.114165 0.304063
429 3 0.0669856 0.114165 0.804063
430 3 0.566986 0.114165 0.804063
431 3 0.433014 0.885835 0.304063
432 3 0.933014 0.885835 0.304063
433 3 0.372117 0.262655 0.780109
434 3 0.872117 0.262655 0.780109
435 3 0.127883 0.737345 0.280109
436 3 0.627883 0.737345 0.280109
437 3 0.122117 0.737345 0.780109
438 3 0.622117 0.737345 0.780109
439 3 0.377883 0.262655 0.280109
440 3 0.877883 0.262655 0.280109
441 3 0.372117 0.762655 0.780109
442 3 0.872117 0.762655 0.780109
443 3 0.127883 0.237345 0.280109
444 3 0.627883 0.237345 0.280109
445 3 0.122117 0.237345 0.780109
446 3 0.622117 0.237345 0.780109
447 3 0.377883 0.762655 0.280109
448 3 0.877883 0.762655 0.280109
449 3 0.378661 0.0127782 0.998567
450 3 0.878661 0.0127781 0.998567
451 3 0.121339 0.987222 0.498567
452 3 0.621339 0.987222 0.498567
453 3 0.128661 0.987222 0.998567
454 3 0.628661 0.987222 0.998567
455 3 0.371339 0.0127781 0.498567
456 3 0.871339 0.0127781 0.498567
457 3 0.378661 0.512778 0.998567
458 3 0.878661 0.512778 0.998567
459 3 0.121339 0.487222 0.498567
460 3 0.621339 0.487222 0.498567
461 3 0.128661 0.487222 0.998567
462 3 0.628661 0.487222 0.998567
463 3 0.371339 0.512778 0.498567
464 3 0.871339 0.512778 0.498567
465 3 0.333648 0.86746 0.973425
466 3 0.833648 0.86746 0.973425
467 3 0.166352 0.13254 0.473425
468 3 0.666352 0.13254 0.473425
469 3 0.0836476 0.13254 0.973425
470 3 0.583648 0.13254 0.973425
471 3 0.416352 0.86746 0.473425
472 3 0.916352 0.86746 0.473425
473 3 0.333648 0.36746 0.973425
474 3 0.833648 0.36746 0.973425
475 3 0.166352 0.63254 0.473425
476 3 0.666352 0.63254 0.473425
477 3 0.0836476 0.63254 0.973425
478 3 0.583648 0.63254 0.973425
479 3 0.416352 0.36746 0.473425
480 3 0.916352 0.36746 0.473425
481 3 0.179264 0.984149 0.858761
482 3 0.679264 0.98415 0.858761
483 3 0.320736 0.0158503 0.358761
484 3 0.820736 0.0158501 0.358761
485 3 0.429264 0.0158501 0.858761
486 3 0.929264 0.0158504 0.858761
487 3 0.0707357 0.98415 0.358761
488 3 0.570736 0.98415 0.358761
489 3 0.179264 0.484149 0.858761
490 3 0.679264 0.48415 0.858761
491 3 0.320736 0.51585 0.358761
492 3 0.820736 0.51585 0.358761
493 3 0.429264 0.51585 0.858761
494 3 0.929264 0.51585 0.858761
495 3 0.0707357 0.48415 0.358761
496 3 0.570736 0.48415 0.358761
497 3 0.168335 0.157002 0.900803
498 3 0.668336 0.157002 0.900803
499 3 0.331665 0.842998 0.400803
500 3 0.831664 0.842998 0.400803
501 3 0.418336 0.842998 0.900803
502 3 0.918335 0.842998 0.900803
503 3 0.0816645 0.157002 0.400803
504 3 0.581665 0.157002 0.400803
505 3 0.168335 0.657002 0.900803
506 3 0.668336 0.657002 0.900803
507 3 0.331665 0.342998 0.400803
508 3 0.831664 0.342998 0.400803
509 3 0.418336 0.342998 0.900803
510 3 0.918335 0.342998 0.900803
511 3 0.0816645 0.657002 0.400803
512 3 0.581665 0.657002 0.400803
513 4 0.13723 0.969357 0.24902
514 4 0.63723 0.969357 0.24902
515 4 0.36277 0.030643 0.74902
516 4 0.86277 0.030643 0.74902
517 4 0.38723 0.030643 0.24902
518 4 0.88723 0.030643 0.24902
519 4 0.11277 0.969357 0.74902
520 4 0.61277 0.969357 0.74902
521 4 0.13723 0.469357 0.24902
522 4 0.63723 0.469357 0.24902
523 4 0.36277 0.530643 0.74902
524 4 0.86277 0.530643 0.749019
525 4 0.38723 0.530643 0.24902
526 4 0.88723 0.530643 0.24902
527 4 0.11277 0.469357 0.74902
528 4 0.61277 0.469357 0.749019
529 4 0.102248 0.921027 0.18196
530 4 0.602248 0.921027 0.18196
531 4 0.397752 0.0789732 0.68196
532 4 0.897752 0.0789732 0.68196
533 4 0.352248 0.0789733 0.18196
534 4 0.852248 0.0789732 0.18196
535 4 0.147752 0.921027 0.68196
536 4 0.647752 0.921027 0.68196
537 4 0.102248 0.421027 0.18196
538 4 0.602248 0.421027 0.18196
539 4 0.397752 0.578973 0.68196
540 4 0.897752 0.578973 0.68196
541 4 0.352248 0.578973 0.18196
542 4 0.852248 0.578973 0.18196
543 4 0.147752 0.421027 0.68196
544 4 0.647752 0.421027 0.68196
545 4 0.0872554 0.0449058 0.229662
546 4 0.587255 0.0449058 0.229662
547 4 0.412745 0.955094 0.729662
548 4 0.912745 0.955094 0.729662
549 4 0.337255 0.955094 0.229662
550 4 0.837255 0.955094 0.229662
551 4 0.162745 0.0449058 0.729662
552 4 0.662745 0.0449058 0.729662
553 4 0.0872555 0.544906 0.229662
554 4 0.587256 0.544906 0.229662
555 4 0.412744 0.455094 0.729662
556 4 0.912744 0.455094 0.729662
557 4 0.337255 0.455094 0.229662
558 4 0.837256 0.455094 0.229662
559 4 0.162744 0.544906 0.729662
560 4 0.662744 0.544906 0.729662
561 4 0.252213 0.100003 0.10692
562 4 0.752213 0.100003 0.10692
563 4 0.247787 0.899997 0.60692
564 4 0.747787 0.899997 0.60692
565 4 0.502213 0.899997 0.10692
566 4 0.00221299 0.899997 0.10692
567 4 0.997787 0.100003 0.60692
568 4 0.497787 0.100003 0.60692
569 4 0.252213 0.600003 0.10692
570 4 0.752213 0.600003 0.10692
571 4 0.247787 0.399997 0.60692
572 4 0.747787 0.399997 0.60692
573 4 0.502213 0.399997 0.10692
574 4 0.00221278 0.399997 0.10692
575 4 0.997787 0.600003 0.60692
576 4 0.497787 0.600003 0.60692
577 4 0.132998 0.291402 0.0483049
578 4 0.632998 0.291402 0.048305
579 4 0.367002 0.708598 0.548305
580 4 0.867002 0.708598 0.548305
581 4 0.382998 0.708598 0.0483049
582 4 0.882998 0.708598 0.0483049
583 4 0.117002 0.291402 0.548305
584 4 0.617002 0.291402 0.548305
585 4 0.132998 0.791401 0.048305
586 4 0.632998 0.791401 0.048305
587 4 0.367002 0.208599 0.548305
588 4 0.867002 0.208599 0.548305
589 4 0.382998 0.208599 0.048305
590 4 0.882998 0.208599 0.048305
591 4 0.117002 0.791401 0.548305
592 4 0.617002 0.791401 0.548305
593 4 0.248385 0.284379 0.753114
594 4 0.748385 0.284379 0.753114
595 4 0.251615 0.715621 0.253114
596 4 0.751615 0.715621 0.253114
597 4 0.498385 0.715621 0.753114
598 4 0.998385 0.715621 0.753114
599 4 0.00161493 0.284379 0.253114
600 4 0.501615 0.284379 0.253114
601 4 0.248385 0.784379 0.753114
602 4 0.748385 0.784379 0.753114
603 4 0.251615 0.215621 0.253114
604 4 0.751615 0.215621 0.253114
605 4 0.498385 0.215621 0.753114
606 4 0.998385 0.215621 0.753114
607 4 0.00161493 0.784379 0.253114
608 4 0.501615 0.784379 0.253114
609 4 0.202901 0.198511 0.780825
610 4 0.702901 0.198511 0.780825
611 4 0.297099 0.801489 0.280825
612 4 0.797099 0.801489 0.280825
613 4 0.452901 0.801489 0.780825
614 4 0.952901 0.801489 0.780825
615 4 0.0470993 0.198511 0.280825
616 4 0.547099 0.198511 0.280825
617 4 0.202901 0.698511 0.780825
618 4 0.702901 0.698511 0.780825
619 4 0.297099 0.301489 0.280825
620 4 0.797099 0.301489 0.280825
621 4 0.452901 0.301489 0.780825
622 4 0.952901 0.301489 0.780825
623 4 0.0470993 0.698511 0.280825
624 4 0.547099 0.698511 0.280825
625 4 0.215576 0.321633 0.826454
626 4 0.715576 0.321633 0.826454
627 4 0.284424 0.678367 0.326454
628 4 0.784424 0.678367 0.326454
629 4 0.465576 0.678367 0.826454
630 4 0.965576 0.678367 0.826454
631 4 0.0344238 0.321633 0.326454
632 4 0.534424 0.321633 0.326454
633 4 0.215576 0.821633 0.826454
634 4 0.715576 0.821633 0.826454
635 4 0.284424 0.178367 0.326454
636 4 0.784424 0.178367 0.326454
637 4 0.465576 0.178367 0.826454
638 4 0.965576 0.178367 0.826454
639 4 0.0344238 0.821633 0.326454
640 4 0.534424 0.821633 0.326454
641 4 0.373832 0.146567 0.893937
642 4 0.873832 0.146567 0.893937
643 4 0.126168 0.853433 0.393937
644 4 0.626168 0.853433 0.393937
645 4 0.123832 0.853433 0.893937
646 4 0.623832 0.853433 0.893937
647 4 0.376168 0.146567 0.393937
648 4 0.876168 0.146567 0.393937
649 4 0.373832 0.646567 0.893937
650 4 0.873832 0.646567 0.893937
651 4 0.126168 0.353433 0.393937
652 4 0.626168 0.353433 0.393937
653 4 0.123832 0.353433 0.893937
654 4 0.623832 0.353433 0.893937
655 4 0.376168 0.646567 0.393937
656 4 0.876168 0.646567 0.393937
657 4 0.254434 0.951954 0.946028
658 4 0.754434 0.951954 0.946028
659 4 0.245566 0.0480456 0.446028
660 4 0.745566 0.0480456 0.446028
661 4 0.00443354 0.0480456 0.946028
662 4 0.504434 0.0480456 0.946028
663 4 0.495566 0.951954 0.446028
664 4 0.995566 0.951954 0.446028
665 4 0.254434 0.451954 0.946028
666 4 0.754434 0.451954 0.946027
667 4 0.245566 0.548046 0.446028
668 4 0.745566 0.548046 0.446027
669 4 0.00443354 0.548046 0.946028
670 4 0.504434 0.548046 0.946027
671 4 0.495566 0.451954 0.446028
672 4 0.995566 0.451954 0.446028
ITEM: TIMESTEP
1000
ITEM: NUMBER OF ATOMS
672
ITEM: BOX BOUNDS xy xz yz pp pp pp
2.2684703065210776e-01 2.9898218987937902e+01 1.7671772400533185e-02
4.4900084939233054e-01 1.1809530015129557e+01 1.2539389518949576e-01
-2.1902357726513522e-01 2.0236023775665156e+01 1.0453058222185488e-01
ITEM: ATOMS id type xs ys zs
1 1 0.146737 0.0618799 0.159586
2 1 0.639944 0.0473985 0.148255
3 1 0.364009 0.943431 0.658071
4 1 0.844051 0.934581 0.663743
5 1 0.388776 0.906723 0.162484
6 1 0.89674 0.96637 0.165177
7 1 0.117501 0.0693824 0.659061
8 1 0.603905 0.0576021 0.660491
9 1 0.145122 0.589872 0.152296
10 1 0.641321 0.567655 0.163705
11 1 0.358135 0.425687 0.646567
12 1 0.857607 0.45606 0.660201
13 1 0.389383 0.389779 0.160797
14 1 0.899799 0.456384 0.142007
15 1 0.108403 0.575782 0.657868
16 1 0.59883 0.558909 0.663215
17 1 0.193686 0.0322831 0.15206
18 1 0.687731 0.0314287 0.137802
19 1 0.317099 0.970932 0.653794
20 1 0.797393 0.954707 0.653945
21 1 0.436662 0.924714 0.151584
22 1 0.943339 0.999028 0.153142
23 1 0.0692082 0.0492547 0.657414
24 1 0.554867 0.050033 0.660787
25 1 0.191922 0.566085 0.139354
26 1 0.688807 0.556716 0.156388
27 1 0.311549 0.455566 0.640096
28 1 0.811302 0.482489 0.649794
29 1 0.436968 0.415697 0.156813
30 1 0.948262 0.463859 0.139662
31 1 0.0607861 0.547183 0.648517
32 1 0.551537 0.548531 0.651325
33 1 0.217693 0.0909247 0.100972
34 1 0.713078 0.123411 0.108357
35 1 0.29267 0.895068 0.611327
36 1 0.775472 0.892574 0.603208
37 1 0.457935 0.854454 0.10285
38 1 0.970043 0.916076 0.116336
39 1 0.0450438 0.123129 0.61087
40 1 0.530878 0.128346 0.616595
41 1 0.213591 0.646601 0.0984589
42 1 0.707808 0.598045 0.0949551
43 1 0.282611 0.379981 0.601695
44 1 0.78732 0.412123 0.606126
45 1 0.464463 0.347333 0.113914
46 1 0.972962 0.397759 0.0914473
47 1 0.0384734 0.619596 0.601565
48 1 0.53122 0.612022 0.598576
49 1 0.197892 0.192092 0.0677744
50 1 0.690023 0.215011 0.0739633
51 1 0.312862 0.812508 0.567393
52 1 0.797108 0.795409 0.57021
53 1 0.436214 0.758394 0.0692617
54 1 0.950075 0.825194 0.079496
55 1 0.0661146 0.212721 0.571982
56 1 0.554949 0.212605 0.577168
57 1 0.190846 0.741004 0.0639093
58 1 0.683131 0.689934 0.0597503
59 1 0.303668 0.29633 0.559798
60 1 0.809553 0.316989 0.570424
61 1 0.445148 0.255278 0.0753669
62 1 0.95237 0.312899 0.0503015
63 1 0.0591699 0.718796 0.570127
64 1 0.557114 0.700005 0.561264
65 1 0.151835 0.224249 0.0810473
66 1 0.642268 0.226012 0.084234
67 1 0.359324 0.782063 0.577608
68 1 0.843739 0.77326 0.582995
69 1 0.390867 0.737932 0.0885508
70 1 0.902691 0.80179 0.0899578
71 1 0.112837 0.229907 0.581342
72 1 0.600495 0.235787 0.596337
73 1 0.144081 0.761304 0.0746477
74 1 0.637454 0.715622 0.0736452
75 1 0.351664 0.273467 0.562035
76 1 0.857527 0.300372 0.578325
77 1 0.398748 0.223229 0.086113
78 1 0.905326 0.297829 0.0637599
79 1 0.106121 0.73987 0.580327
80 1 0.603671 0.714935 0.579167
81 1 0.124103 0.152358 0.121739
82 1 0.614254 0.149329 0.124268
83 1 0.384981 0.838994 0.625957
84 1 0.868708 0.852604 0.624772
85 1 0.365276 0.806971 0.133894
86 1 0.875437 0.871302 0.133371
87 1 0.140105 0.164531 0.625994
88 1 0.628145 0.155639 0.632497
89 1 0.121191 0.684374 0.120957
90 1 0.615199 0.638126 0.119435
91 1 0.379812 0.334516 0.607505
92 1 0.883333 0.373275 0.62105
93 1 0.370277 0.290018 0.127727
94 1 0.878014 0.363131 0.108375
95 1 0.132102 0.66501 0.621392
96 1 0.62645 0.63759 0.624652
97 1 0.121823 0.991417 0.212925
98 1 0.610552 0.970072 0.194123
99 1 0.390055 0.0117904 0.712249
100 1 0.874875 0.0129942 0.706428
101 1 0.366589 0.994636 0.210948
102 1 0.869442 0.03891 0.216368
103 1 0.146469 0.98708 0.704867
104 1 0.632222 0.972423 0.704316
105 1 0.12066 0.524202 0.208477
106 1 0.612838 0.495918 0.214413
107 1 0.385744 0.4841 0.703295
108 1 0.887504 0.500696 0.717379
109 1 0.357649 0.475349 0.196685
110 1 0.876383 0.509182 0.205117
111 1 0.135159 0.487209 0.70232
112 1 0.623393 0.47649 0.715605
113 1 0.281873 0.176334 0.852064
114 1 0.772172 0.170568 0.84864
115 1 0.223096 0.818093 0.345009
116 1 0.717488 0.83341 0.344323
117 1 0.0237659 0.820435 0.837885
118 1 0.526155 0.809216 0.839046
119 1 0.465844 0.162775 0.333205
120 1 0.979738 0.192961 0.35015
121 1 0.274018 0.696313 0.841464
122 1 0.772173 0.675466 0.844773
123 1 0.220463 0.317074 0.333856
124 1 0.722388 0.297251 0.335934
125 1 0.0280765 0.320104 0.846037
126 1 0.51777 0.306044 0.85005
127 1 0.476888 0.654565 0.343181
128 1 0.983692 0.700108 0.345609
129 1 0.330462 0.190148 0.853525
130 1 0.818619 0.195821 0.85379
131 1 0.175894 0.793218 0.34875
132 1 0.671112 0.806858 0.352638
133 1 0.072615 0.801767 0.838829
134 1 0.572659 0.786536 0.847283
135 1 0.418934 0.185596 0.342645
136 1 0.9324 0.213993 0.360782
137 1 0.321618 0.704547 0.84894
138 1 0.818695 0.706029 0.847561
139 1 0.172915 0.304621 0.344127
140 1 0.67504 0.275754 0.341726
141 1 0.0758604 0.303837 0.856964
142 1 0.565408 0.288755 0.848877
143 1 0.428401 0.660739 0.3423
144 1 0.935343 0.71883 0.349281
145 1 0.354441 0.110512 0.89537
146 1 0.845401 0.122935 0.896144
147 1 0.148785 0.860555 0.395261
148 1 0.647851 0.886341 0.397727
149 1 0.0985084 0.87672 0.879887
150 1 0.59742 0.851643 0.894907
151 1 0.395255 0.114227 0.387422
152 1 0.908324 0.144767 0.407167
153 1 0.341338 0.628124 0.896587
154 1 0.844659 0.651338 0.89651
155 1 0.150759 0.379937 0.391242
156 1 0.651734 0.343514 0.390366
157 1 0.100825 0.381016 0.899074
158 1 0.593089 0.362925 0.88892
159 1 0.403322 0.582015 0.385354
160 1 0.909142 0.630575 0.382174
161 1 0.329592 0.021011 0.931484
162 1 0.825703 0.0382963 0.939204
163 1 0.169701 0.953419 0.428583
164 1 0.671732 0.975688 0.432148
165 1 0.0754945 0.96338 0.918832
166 1 0.575009 0.94075 0.931066
167 1 0.4181 0.0215524 0.424526
168 1 0.930201 0.0499232 0.439386
169 1 0.314293 0.55 0.935537
170 1 0.826068 0.550398 0.930513
171 1 0.177344 0.4608 0.427739
172 1 0.674431 0.432786 0.427312
173 1 0.0758478 0.473637 0.931812
174 1 0.572144 0.449675 0.930935
175 1 0.428864 0.501631 0.423819
176 1 0.930873 0.568259 0.434903
177 1 0.283212 5.46449e-05 0.914261
178 1 0.778196 0.0111781 0.929123
179 1 0.214128 0.990681 0.41165
180 1 0.719099 0.994779 0.418709
181 1 0.0285652 0.988304 0.907827
182 1 0.529344 0.971426 0.9165
183 1 0.463855 0.992102 0.403428
184 1 0.975358 0.0185358 0.420168
185 1 0.266644 0.544079 0.922097
186 1 0.781466 0.503559 0.919286
187 1 0.22408 0.485184 0.407429
188 1 0.71858 0.466859 0.408168
189 1 0.0305031 0.500863 0.912691
190 1 0.522778 0.46092 0.925647
191 1 0.477842 0.485684 0.415292
192 1 0.979117 0.552053 0.433707
193 1 0.256413 0.0769847 0.875853
194 1 0.750774 0.0738348 0.884181
195 1 0.243298 0.924687 0.371197
196 1 0.744092 0.917898 0.376968
197 1 0.50231 0.897327 0.876082
198 1 0.999851 0.920226 0.868773
199 1 0.00292458 0.102416 0.385929
200 1 0.491011 0.0704533 0.366898
201 1 0.244916 0.617763 0.876118
202 1 0.753142 0.57581 0.879685
203 1 0.247614 0.406559 0.36559
204 1 0.745969 0.389266 0.367508
205 1 0.493094 0.394863 0.885583
206 1 0.00571979 0.428036 0.867188
207 1 0.00633871 0.613583 0.38709
208 1 0.502557 0.567257 0.377311
209 1 0.251574 0.258644 0.808321
210 1 0.743055 0.243854 0.800139
211 1 0.254056 0.741205 0.301855
212 1 0.745289 0.755689 0.294727
213 1 0.49923 0.727091 0.791617
214 1 0.99316 0.750328 0.78974
215 1 0.0020845 0.267264 0.293188
216 1 0.496098 0.242924 0.291686
217 1 0.247274 0.774528 0.793311
218 1 0.74275 0.740252 0.792787
219 1 0.244765 0.227841 0.287446
220 1 0.756936 0.22438 0.292617
221 1 0.491635 0.234514 0.798697
222 1 0.00535683 0.235761 0.796261
223 1 0.00986762 0.766799 0.289963
224 1 0.504254 0.736447 0.297174