LAMMPS data file via write_data, version 15 Apr 2020, timestep = 80000

672 atoms
4 atom types

4.9193874152603634e-01 2.9490061609473479e+01 xlo xhi
4.8800898689270156e-01 1.1665991295407204e+01 ylo yhi
-1.2436591145337417e-01 2.0141366109852662e+01 zlo zhi
9.4979726074928314e-02 -2.9926291372465545e-02 1.3128914446256905e-02 xy xz yz

Masses

1 12.0107
2 14.0067
3 15.9994
4 1.00794

Atoms # full

1 1 1 8.5874207131534944e-02 4.5079198561376055e+00 1.4281217405464119e+00 3.0876734124336687e+00 0 0 0
2 1 1 8.1452766615018463e-02 1.8801974253346440e+01 1.4226893072775524e+00 3.2169225761585243e+00 0 0 0
3 1 1 7.7718880359230746e-02 1.1074106309023172e+01 1.0685019343867451e+01 1.3411257495592794e+01 0 0 0
4 1 1 7.5697946976088226e-02 2.5422389635357870e+01 1.0862782930631722e+01 1.3263281233806241e+01 0 0 0
5 1 1 5.5490940479678730e-02 1.1566308116159906e+01 1.0786646623787444e+01 3.0096593333733068e+00 0 0 0
6 1 1 6.3383548839066731e-02 2.6473928009534294e+01 1.0754922062496554e+01 2.9416662199455974e+00 0 0 0
7 1 1 7.0515737775938281e-02 3.5964254782585079e+00 1.4662447307981699e+00 1.3239435450469946e+01 0 0 0
8 1 1 7.9324354189368285e-02 1.8145098948436466e+01 1.4551986441918334e+00 1.3115576128920489e+01 0 0 0
9 1 1 6.7445797522303508e-02 4.8109026625615430e+00 6.8379568884967155e+00 3.0180913564009453e+00 0 0 0
10 1 1 7.2198604143020553e-02 1.8972379095098329e+01 6.9910144461056012e+00 3.1439257407996424e+00 0 0 0
11 1 1 9.2691542391434692e-02 1.0815323833056080e+01 4.9798785210431733e+00 1.2998702652468829e+01 0 0 0
12 1 1 7.4425225737694278e-02 2.5477155783413036e+01 5.1894170341487538e+00 1.3142317362251944e+01 0 0 0
13 1 1 7.4747163485784973e-02 1.1491526105090630e+01 5.1302552092379017e+00 3.2060441525271974e+00 0 0 0
14 1 1 6.0270330198678973e-02 2.6397460170855936e+01 5.1734978083940053e+00 2.8058508137471536e+00 0 0 0
15 1 1 6.4784539614173089e-02 3.6886404080341109e+00 7.0898528424008402e+00 1.3102537946414619e+01 0 0 0
16 1 1 6.3055253489840868e-02 1.8598134780972398e+01 6.8977554656111151e+00 1.3269859654535992e+01 0 0 0
17 1 1 5.6630339244235169e-02 5.8520776937150405e+00 9.4658091806172129e-01 3.0343629479449712e+00 0 0 0
18 1 1 7.5213477813951546e-02 2.0193515000574912e+01 1.0671346033433797e+00 3.0632298234706234e+00 0 0 0
19 1 1 6.2948373051892895e-02 9.6867394836040859e+00 1.0978271367788885e+01 1.3313343109714278e+01 0 0 0
20 1 1 6.6945644457089920e-02 2.4064176934790705e+01 1.1232914525946976e+01 1.3016760689532100e+01 0 0 0
21 1 1 7.2456832826253897e-02 1.2982230206503713e+01 1.1036933992216801e+01 2.9291486845274703e+00 0 0 0
22 1 1 5.7960192544918437e-02 2.7867250733452018e+01 1.1102279100807982e+01 2.8881565389014852e+00 0 0 0
23 1 1 5.7879821733150642e-02 2.2217213146880583e+00 1.0441452684595578e+00 1.3111269053014004e+01 0 0 0
24 1 1 6.0712589688120905e-02 1.6713106262945452e+01 1.2361022020624994e+00 1.3182071195323960e+01 0 0 0
25 1 1 5.2143308619627127e-02 6.1252664647552697e+00 6.2843746828627864e+00 2.9414358579020226e+00 0 0 0
26 1 1 6.4884986943852169e-02 2.0351925768469965e+01 6.5566062626753663e+00 2.9363455863093026e+00 0 0 0
27 1 1 6.8883670181248566e-02 9.4632828190652081e+00 5.4066200498321386e+00 1.2865686705249120e+01 0 0 0
28 1 1 7.1019471788550531e-02 2.4096870530330563e+01 5.6522676823946263e+00 1.3147737217244831e+01 0 0 0
29 1 1 8.1151621659401429e-02 1.2794418618065933e+01 5.6668881820168551e+00 2.8130672686692888e+00 0 0 0
30 1 1 7.1341230025665184e-02 2.7822560487821534e+01 5.3728601119782882e+00 2.6760522934370368e+00 0 0 0
31 1 1 6.8593776731143863e-02 2.3812390809730015e+00 6.5420536315119069e+00 1.2807101973935172e+01 0 0 0
32 1 1 5.9885530500678796e-02 1.7171377025241132e+01 6.7432312528600455e+00 1.3176463914982742e+01 0 0 0
33 1 1 -3.8336628983148172e-02 6.8087792312297353e+00 1.3550533358809775e+00 2.0517010114755774e+00 0 0 0
34 1 1 -4.3794864833763415e-02 2.0908466391105403e+01 1.7680980121593228e+00 2.0680813920277106e+00 0 0 0
35 1 1 -6.3525393525529661e-02 8.9307376441045427e+00 1.0249986464654629e+01 1.2352668822283603e+01 0 0 0
36 1 1 -3.8391539046165254e-02 2.3395572554344216e+01 1.0444369827931945e+01 1.2053776768944903e+01 0 0 0
37 1 1 -3.9197041214186823e-02 1.3713781500281627e+01 1.0287632990927214e+01 1.9584190679747113e+00 0 0 0
38 1 1 -6.3005600961306016e-02 2.8676523178837073e+01 1.0272106357007459e+01 2.0804550328360150e+00 0 0 0
39 1 1 -4.3005703088692601e-02 1.5660071293889541e+00 1.7470066478785404e+00 1.2038896645632224e+01 0 0 0
40 1 1 -5.6993011322245435e-02 1.5947249113128805e+01 1.9920666828402638e+00 1.2276962893052898e+01 0 0 0
41 1 1 -5.9334634088110634e-02 7.0762321960696228e+00 7.0441839627994911e+00 2.2452764374566954e+00 0 0 0
42 1 1 -3.6413512917929838e-02 2.1128564870662743e+01 7.1536038370777124e+00 1.8740847854455398e+00 0 0 0
43 1 1 -3.8465442405170830e-02 8.6481527809617003e+00 4.7287914588663682e+00 1.1895193942941903e+01 0 0 0
44 1 1 -4.3127272455485748e-02 2.3323663801743425e+01 4.9261298469444359e+00 1.2206989558361009e+01 0 0 0
45 1 1 -3.2732267580671631e-02 1.3574114258261627e+01 4.9407805660026209e+00 1.8317856001087882e+00 0 0 0
46 1 1 -4.8965769121968789e-02 2.8568431646762050e+01 4.5650775638542580e+00 1.7970662088103757e+00 0 0 0
47 1 1 -3.1153274309943395e-02 1.6223313655960381e+00 7.0774355011241221e+00 1.1738685857226507e+01 0 0 0
48 1 1 -3.7018223013915323e-02 1.6401953880444491e+01 7.5754198108173467e+00 1.2322793374392978e+01 0 0 0
49 1 1 1.0533070577496388e-01 6.5106786956090081e+00 2.4713284743567048e+00 1.2261558689746064e+00 0 0 0
50 1 1 9.4861858563073720e-02 2.0358344634542298e+01 2.8567165629465654e+00 1.3391670564594000e+00 0 0 0
51 1 1 1.1231108433149217e-01 9.5078495027894085e+00 9.1717512694169052e+00 1.1609807973125996e+01 0 0 0
52 1 1 1.1029334066574466e-01 2.3944232511092192e+01 9.3337757079043193e+00 1.1384494935831235e+01 0 0 0
53 1 1 1.1389951468860580e-01 1.3055181024893766e+01 9.2943613213214551e+00 1.1720118025673756e+00 0 0 0
54 1 1 1.1192608113290980e-01 2.8094406999191836e+01 9.2460875337082644e+00 1.2297993477083156e+00 0 0 0
55 1 1 1.0187850507820231e-01 2.0961128377727065e+00 2.8329279691385545e+00 1.1316416997257202e+01 0 0 0
56 1 1 1.1228982251031536e-01 1.6524680917745744e+01 3.0512846214861931e+00 1.1561669456540105e+01 0 0 0
57 1 1 9.2616048154399458e-02 6.7515288476959547e+00 8.1271543613796418e+00 1.3814062828264482e+00 0 0 0
58 1 1 1.1652334536964384e-01 2.0602508001528459e+01 8.3739494440905151e+00 1.3230267430986771e+00 0 0 0
59 1 1 1.0724556500768956e-01 9.1392418762284429e+00 3.5485341732784668e+00 1.1202726648058063e+01 0 0 0
60 1 1 1.0144809582910533e-01 2.3790878174600000e+01 3.8949536081045140e+00 1.1341531988870884e+01 0 0 0
61 1 1 1.0936634769879872e-01 1.3129559743416383e+01 3.7022287759287344e+00 1.3398233668201103e+00 0 0 0
62 1 1 1.1428683296070136e-01 2.7992064998607820e+01 3.4714169905506571e+00 1.0783968496048835e+00 0 0 0
63 1 1 1.0326594681289655e-01 2.1138551620987105e+00 8.3481232520931918e+00 1.1209037700199648e+01 0 0 0
64 1 1 1.1073281109705169e-01 1.6950861901936452e+01 8.5346781635479303e+00 1.1428792467739582e+01 0 0 0
65 1 1 -3.5034820560220579e-02 5.1893225044197901e+00 3.0715309707203886e+00 1.3767583092321987e+00 0 0 0
66 1 1 -4.7955366079017833e-02 1.9080911454597064e+01 3.3960319573122706e+00 1.6510028074778715e+00 0 0 0
67 1 1 -4.2672699951530224e-02 1.0904366205846635e+01 8.8737061936160124e+00 1.1871998303382588e+01 0 0 0
68 1 1 -4.1233513949374620e-02 2.5322367029264832e+01 9.0205327254225693e+00 1.1664268789718971e+01 0 0 0
69 1 1 -2.3586616906780811e-02 1.1662770028718469e+01 9.0429664008264226e+00 1.3713305102721021e+00 0 0 0
70 1 1 -4.2364143853882652e-02 2.6718806241572178e+01 9.0432971017909107e+00 1.3511284857525896e+00 0 0 0
71 1 1 -3.4447427953599341e-02 3.4639977712880432e+00 3.1227834995250143e+00 1.1451605931446192e+01 0 0 0
72 1 1 -4.6649955056118575e-02 1.7916287022084653e+01 3.4153152326813223e+00 1.1716324388057451e+01 0 0 0
73 1 1 -3.6931174198369818e-02 5.4666053205768197e+00 8.8095825922164206e+00 1.6042995053329363e+00 0 0 0
74 1 1 -2.2941934966568673e-02 1.9208606784234426e+01 8.7209304266209564e+00 1.4985009491808698e+00 0 0 0
75 1 1 -3.6317011732026686e-02 1.0510528182133092e+01 3.1319143326318462e+00 1.1470354276014829e+01 0 0 0
76 1 1 -2.8882319069000226e-02 2.5166047833465381e+01 3.5374845372933055e+00 1.1435803135805372e+01 0 0 0
77 1 1 -3.9327756836332869e-02 1.1796956825738514e+01 3.2699669398707938e+00 1.6254992477961823e+00 0 0 0
78 1 1 -5.3559599022275368e-02 2.6603187898676527e+01 3.2651372489035313e+00 1.3449116035690507e+00 0 0 0
79 1 1 -3.1689899216539016e-02 3.4087012641346659e+00 8.8023000096030124e+00 1.1470172355981441e+01 0 0 0
80 1 1 -3.5764397499972699e-02 1.8320022729236801e+01 8.7597227709873504e+00 1.1644105513382447e+01 0 0 0
81 1 1 8.3592501487029250e-02 4.1890227915670604e+00 2.5629031815388412e+00 2.2565545012818240e+00 0 0 0
82 1 1 8.1809074608750990e-02 1.8313176957399239e+01 2.6129805531450443e+00 2.5851549743069020e+00 0 0 0
83 1 1 7.8698021545878585e-02 1.1766711953495754e+01 9.6584296288461857e+00 1.2705291655318566e+01 0 0 0
84 1 1 7.7780226461782800e-02 2.6084769969916174e+01 9.8387149773431375e+00 1.2540329947977270e+01 0 0 0
85 1 1 8.2960263041678944e-02 1.0872454288760746e+01 9.7209614607794439e+00 2.3418159950490622e+00 0 0 0
86 1 1 8.8781795024084995e-02 2.5778287803944419e+01 9.7679987604488989e+00 2.1580716191278251e+00 0 0 0
87 1 1 9.6090003485189118e-02 4.2776602334850473e+00 2.4713969704334779e+00 1.2436631858670783e+01 0 0 0
88 1 1 8.0494342221958726e-02 1.8766819602366123e+01 2.5966235934256079e+00 1.2525614023991954e+01 0 0 0
89 1 1 8.7323191960582289e-02 4.5349129009508742e+00 8.1660738527123726e+00 2.4505075295303742e+00 0 0 0
90 1 1 8.0769340207859974e-02 1.8347934798564712e+01 8.0226573685197700e+00 2.3999420203758524e+00 0 0 0
91 1 1 8.6624162860340498e-02 1.1380848754370808e+01 3.8820566811002100e+00 1.2276161564803676e+01 0 0 0
92 1 1 7.4971824944342791e-02 2.6047620880397371e+01 4.0952418714130125e+00 1.2410318931203054e+01 0 0 0
93 1 1 6.4880716294450136e-02 1.0961819713437338e+01 4.0563249603244618e+00 2.4717063101690013e+00 0 0 0
94 1 1 6.6806333908955240e-02 2.5734747503465677e+01 4.1047652809230257e+00 2.0977406799554443e+00 0 0 0
95 1 1 8.0100642212393963e-02 4.3042133337784394e+00 8.1617372765095517e+00 1.2344509085488777e+01 0 0 0
96 1 1 6.3752300201192089e-02 1.9155675122633124e+01 7.9421745379719599e+00 1.2462561494942600e+01 0 0 0
97 1 1 -2.5443085846649721e-01 3.3655269760784279e+00 7.8770363612416583e-01 3.8456640544146126e+00 0 1 0
98 1 1 -2.5870022353879346e-01 1.7984477259579052e+01 6.2694406708911121e-01 4.3090026260624024e+00 0 1 0
99 1 1 -2.6169611017462524e-01 1.1974635002521667e+01 1.1541780806162363e+01 1.4358917509997678e+01 0 -1 0
100 1 1 -2.6870741453677299e-01 2.6219835148179939e+01 5.7274878668791218e-01 1.4132177413493775e+01 0 0 0
101 1 1 -2.7192186878094526e-01 1.0763236277807076e+01 1.1559631110281913e+01 4.0825215605250902e+00 0 -1 0
102 1 1 -2.6130457449106570e-01 2.5530847716147594e+01 1.1658278207992634e+01 3.8071458140362906e+00 0 -1 0
103 1 1 -2.4746046120695467e-01 4.5202672769335246e+00 7.1699899733480699e-01 1.4218065480676664e+01 0 1 0
104 1 1 -2.8248509257627646e-01 1.9171243227910551e+01 1.1638063404780032e+01 1.3905142150370008e+01 0 0 0
105 1 1 -2.6294115736403662e-01 3.7353105716832427e+00 6.0173395266331760e+00 3.7317394180309775e+00 0 0 0
106 1 1 -2.4730272888059091e-01 1.8115399738571831e+01 6.2416539390480823e+00 4.2238158738771041e+00 0 0 0
107 1 1 -2.4633838423896723e-01 1.1761093886536871e+01 5.7659317054978754e+00 1.3965251415433158e+01 0 0 0
108 1 1 -2.6938399867726120e-01 2.6448669700533156e+01 6.0179767329627740e+00 1.4044843747148702e+01 0 0 0
109 1 1 -2.7237944107006951e-01 1.0658425513449245e+01 5.8092788703756719e+00 4.3306319243881823e+00 0 0 0
110 1 1 -2.7344181464602429e-01 2.5573438891105230e+01 5.9557723983442488e+00 3.8303099588285199e+00 0 0 0
111 1 1 -2.6484027139634764e-01 4.6485392911540879e+00 6.3708379199316063e+00 1.4074560550992288e+01 0 0 0
112 1 1 -2.8315697932963918e-01 1.9346164927053923e+01 6.0475623150524624e+00 1.4339325377695337e+01 0 0 0
113 1 1 7.3233684494959400e-02 8.3489739092523383e+00 2.6508661594255325e+00 1.6961964749972157e+01 0 0 0
114 1 1 6.1315026883160491e-02 2.2995667545179582e+01 2.4808315170825224e+00 1.7162359261825650e+01 0 0 0
115 1 1 7.2486984344747568e-02 7.1489967448386702e+00 9.4831047733468150e+00 6.9486674475466783e+00 0 0 0
116 1 1 6.7942074611149192e-02 2.1637664328013951e+01 9.7755913587189447e+00 6.7672100076181563e+00 0 0 0
117 1 1 7.3154989818966287e-02 1.3756646385130757e+00 9.8406348904141989e+00 1.7156852542890668e+01 0 0 0
118 1 1 7.0247982633552322e-02 1.5807926239143409e+01 9.7652762807953444e+00 1.7063250490343595e+01 0 0 0
119 1 1 5.5299281572908421e-02 1.4088339484077817e+01 2.3602338294133682e+00 7.0272018661369859e+00 0 0 0
120 1 1 6.7629060230749299e-02 2.8807690698173744e+01 2.4470052344554771e+00 6.8240045327526344e+00 0 0 0
121 1 1 5.6345615125146645e-02 8.5723373742720330e+00 8.2626721691993303e+00 1.6977386228145640e+01 0 0 0
122 1 1 5.9850057697279788e-02 2.2789151062802450e+01 8.1610919302145355e+00 1.6897229774870524e+01 0 0 0
123 1 1 7.2197861118224141e-02 7.0720499197605902e+00 4.0725991012357605e+00 7.0810952011361969e+00 0 0 0
124 1 1 6.7752441545255768e-02 2.1476437363030257e+01 4.2852656788572165e+00 7.0098367795356529e+00 0 0 0
125 1 1 6.6892135456135898e-02 1.3742089596834468e+00 4.1757552846797967e+00 1.6857796980543974e+01 0 0 0
126 1 1 6.5607853177235997e-02 1.5687159798895316e+01 4.1749929876233347e+00 1.7216159362913569e+01 0 0 0
127 1 1 6.3817225596249513e-02 1.4261577596685864e+01 8.0123465974901364e+00 6.8158372846981061e+00 0 0 0
128 1 1 6.7103372161797292e-02 2.8767544498072613e+01 8.0047514894377763e+00 6.6542888458943334e+00 0 0 0
129 1 1 6.9186320743316751e-02 9.7337353525706778e+00 2.8640393598450262e+00 1.6845099421906642e+01 0 0 0
130 1 1 6.7257511876826631e-02 2.4435354360824149e+01 2.6715459310356202e+00 1.7169609521688255e+01 0 0 0
131 1 1 8.7104972392693186e-02 5.7121772007978970e+00 9.3469876062039656e+00 7.1037293774962063e+00 0 0 0
132 1 1 5.5885560149526052e-02 2.0221409008265606e+01 9.6460686426857212e+00 6.8215376626717337e+00 0 0 0
133 1 1 6.5159067745996446e-02 2.7977997540572499e+00 9.5819614743421191e+00 1.7276639352353964e+01 0 0 0
134 1 1 7.8222089337551717e-02 1.7214906499608276e+01 9.5148002916491965e+00 1.7155588533856086e+01 0 0 0
135 1 1 6.3621969452047400e-02 1.2671336731773119e+01 2.4689350411003677e+00 7.0930775626720264e+00 0 0 0
136 1 1 6.9665825091190764e-02 2.7405266657826036e+01 2.7371384476472489e+00 6.9407773361433209e+00 0 0 0
137 1 1 7.3299361326621848e-02 9.9885126610668760e+00 8.4149253974592906e+00 1.7050976748411269e+01 0 0 0
138 1 1 7.0062828584252973e-02 2.4213567847094200e+01 8.3321896184760913e+00 1.6926236156876072e+01 0 0 0
139 1 1 7.1624268519440315e-02 5.6807223395429780e+00 3.8828478947182918e+00 6.9896136194680425e+00 0 0 0
140 1 1 8.8316268909345769e-02 2.0071843528753874e+01 3.9718894512532579e+00 7.0227025167657571e+00 0 0 0
141 1 1 6.8112374841069329e-02 2.7702866759604579e+00 3.9180740823555587e+00 1.6918722411980465e+01 0 0 0
142 1 1 7.0976135234113974e-02 1.7098641435280559e+01 3.9382687110771428e+00 1.7274556550476969e+01 0 0 0
143 1 1 6.1747043183912387e-02 1.2885059368899508e+01 8.1792024148024822e+00 7.0095250593234661e+00 0 0 0
144 1 1 6.4730186763724690e-02 2.7344951839110426e+01 8.2468289456596118e+00 6.7591416380552758e+00 0 0 0
145 1 1 -4.7721265129208351e-02 1.0483654817936433e+01 2.0664829516775676e+00 1.7779036803075201e+01 0 0 0
146 1 1 -4.9254201389444446e-02 2.5106294900769971e+01 1.7842046107775311e+00 1.8066241666986127e+01 0 0 0
147 1 1 -3.2165976167229937e-02 4.9630598498605423e+00 1.0283211584666947e+01 7.8316178677807127e+00 0 0 0
148 1 1 -4.3627051926401296e-02 1.9542529982895633e+01 1.0536173366711068e+01 7.7313343326286894e+00 0 0 0
149 1 1 -3.1966508790588398e-02 3.5957345567380412e+00 1.0297611718005250e+01 1.8182459329877084e+01 0 0 0
150 1 1 -3.3514362732050162e-02 1.7874324180579379e+01 1.0417627074076810e+01 1.8047392088792687e+01 0 0 0
151 1 1 -3.7171184828587472e-02 1.2053323104895320e+01 1.5651932195562992e+00 7.9814461725344614e+00 0 0 0
152 1 1 -2.9385024318565676e-02 2.6570171659783238e+01 1.9243371027122580e+00 7.7681696215834863e+00 0 0 0
153 1 1 -2.9636135024556535e-02 1.0703854887071927e+01 7.5996610726817027e+00 1.7971701930577670e+01 0 0 0
154 1 1 -4.3500703226851199e-02 2.4998639081355204e+01 7.4717677831891463e+00 1.7769815723889451e+01 0 0 0
155 1 1 -3.3836759607920708e-02 4.8299210137645847e+00 4.7113055199289438e+00 7.7915368309520261e+00 0 0 0
156 1 1 -4.3750854996762123e-02 1.9338791381493994e+01 4.7354960158847792e+00 7.9417341669872954e+00 0 0 0
157 1 1 -3.7254409197592528e-02 3.5272738166844815e+00 4.7704702533816974e+00 1.7796555699734665e+01 0 0 0
158 1 1 -2.8906356566221130e-02 1.7807825335268284e+01 4.8623370091384919e+00 1.8107870924482619e+01 0 0 0
159 1 1 -4.1788144919696617e-02 1.2351165412058418e+01 7.2813213258645080e+00 7.9806323682478730e+00 0 0 0
160 1 1 -5.3672371348461104e-02 2.6685353309992479e+01 7.4417284622670579e+00 7.7299905764421810e+00 0 0 0
161 1 1 1.0992754002504877e-01 9.8821800421972235e+00 9.6245254803545133e-01 1.8460505383245305e+01 0 0 0
162 1 1 9.5133342994314030e-02 2.4482529674289790e+01 6.4969296131562282e-01 1.8659946392920855e+01 0 0 0
163 1 1 9.1751909761754930e-02 5.6299850011779391e+00 1.1317641851108096e+01 8.6140223121972674e+00 0 0 0
164 1 1 9.8865210007187440e-02 2.0216205575160416e+01 1.1462686084599289e+01 8.5386609534396793e+00 0 0 0
165 1 1 9.7966063110838525e-02 2.9400281958076517e+00 1.1457426567565046e+01 1.8836200076805298e+01 0 0 0
166 1 1 9.3494233053872278e-02 1.7236256650165856e+01 1.1310148443703804e+01 1.8985330024541309e+01 0 0 0
167 1 1 1.0345102495123153e-01 1.2744288682654034e+01 5.6996384368510533e-01 8.7336015459443086e+00 0 0 0
168 1 1 9.1135056795838026e-02 2.7116322065632371e+01 8.1176294449091846e-01 8.4721319375379345e+00 0 0 0
169 1 1 1.0019850466372891e-01 1.0036818392745932e+01 6.6153060695217576e+00 1.8802031153181449e+01 0 0 0
170 1 1 1.0118468650623644e-01 2.4398464822582770e+01 6.3621548629496747e+00 1.8469756263699804e+01 0 0 0
171 1 1 9.0050637354208651e-02 5.3831559833323661e+00 5.6823848862878830e+00 8.6551042324232892e+00 0 0 0
172 1 1 9.5824996255765488e-02 1.9906196827925342e+01 5.9055379841390954e+00 8.5483597720724731e+00 0 0 0
173 1 1 9.9511524558885789e-02 2.9583665899206677e+00 5.6591496484795396e+00 1.8746817552323961e+01 0 0 0
174 1 1 9.6143602151209068e-02 1.7119642375714047e+01 5.8816866749143637e+00 1.8839523803594993e+01 0 0 0
175 1 1 9.7045656071329978e-02 1.3067202485314773e+01 6.3183154176118324e+00 8.7052898709211863e+00 0 0 0
176 1 1 9.2861181786100866e-02 2.7152777806127766e+01 6.2590425208494151e+00 8.3045222102647447e+00 0 0 0
177 1 1 -6.2631136060833884e-02 8.5058250923143923e+00 6.6388824535835345e-01 1.8249301734049673e+01 0 0 0
178 1 1 -5.6962446446388579e-02 2.3177324055046430e+01 1.1654122800547542e+01 1.8503738093253098e+01 0 -1 0
179 1 1 -6.1964849051055933e-02 7.0617743304344014e+00 1.1372622414234431e+01 8.4921444288257852e+00 0 0 0
180 1 1 -6.8795451167617927e-02 2.1614824981902995e+01 1.1652321973461259e+01 8.3952051477214162e+00 0 0 0
181 1 1 -4.3487666187195462e-02 1.5653319326762243e+00 6.6799754631254860e-01 1.8532261790890495e+01 0 1 0
182 1 1 -6.8483681982665426e-02 1.5851540917302174e+01 1.1478706605175736e+01 1.8734361165155082e+01 0 0 0
183 1 1 -6.4920499976787144e-02 1.4171435527685832e+01 5.2164274178922565e-01 8.6134848382321092e+00 0 0 0
184 1 1 -4.8680712384797389e-02 2.8562334029468342e+01 1.1585260826713746e+01 8.1703429957584728e+00 0 -1 0
185 1 1 -6.7964509835620981e-02 8.6258840363246918e+00 6.4783502889813604e+00 1.8632164757550029e+01 0 0 0
186 1 1 -7.2444233802130040e-02 2.2999174237722013e+01 6.2391977031852983e+00 1.8484052936022056e+01 0 0 0
187 1 1 -6.2557343590403963e-02 6.7837220357565240e+00 5.9520281667680051e+00 8.6782670924593308e+00 0 0 0
188 1 1 -6.1593059696929631e-02 2.1198432809142695e+01 6.3055581535505789e+00 8.1820787766810366e+00 0 0 0
189 1 1 -4.7433505066678303e-02 1.5453871802569319e+00 5.8473902246492484e+00 1.8645998087983379e+01 0 0 0
190 1 1 -7.3832324459098736e-02 1.5697462932323960e+01 6.0290454638323947e+00 1.8726276195968595e+01 0 0 0
191 1 1 -7.5146791616805944e-02 1.4382365635420374e+01 6.0139075309122463e+00 8.2597776041513882e+00 0 0 0
192 1 1 -6.6317456548382336e-02 2.8559032311741721e+01 5.9857609024589982e+00 8.0675511159160358e+00 0 0 0
193 1 1 6.4922516861842569e-02 7.6659940959925805e+00 1.5634237016472459e+00 1.7560950375179896e+01 0 0 0
194 1 1 7.3420371120997363e-02 2.2270277345031651e+01 1.4163008954626539e+00 1.7744535945744023e+01 0 0 0
195 1 1 8.4571240191673072e-02 7.8627240743822897e+00 1.0463733428094924e+01 7.7121598429727225e+00 0 0 0
196 1 1 9.0110534648845678e-02 2.2352037078447239e+01 1.0848558838789979e+01 7.4682397465921939e+00 0 0 0
197 1 1 8.5120174239893875e-02 1.5067725200671621e+01 1.0734914951360324e+01 1.7792871501868323e+01 0 0 0
198 1 1 9.4237166323278374e-02 7.9305797161031499e-01 1.0978793877191041e+01 1.7768809124817768e+01 1 0 0
199 1 1 8.8708739013829141e-02 2.9332237176262613e+01 1.2284304153763557e+00 7.3857983787662942e+00 -1 0 0
200 1 1 7.6976108340072111e-02 1.4900327224411743e+01 1.4327226302594021e+00 7.7751659126592081e+00 0 0 0
201 1 1 5.1969654323195918e-02 7.8426619648363722e+00 7.2851379117529751e+00 1.7727274835556088e+01 0 0 0
202 1 1 7.0215651205886076e-02 2.2169502922242796e+01 7.1463409450563766e+00 1.7737447044046636e+01 0 0 0
203 1 1 7.9796662688871783e-02 7.6267934673647657e+00 5.1129561885062120e+00 7.8806144787729355e+00 0 0 0
204 1 1 7.7117656964091730e-02 2.2095946156294627e+01 5.5224155936437427e+00 7.3913727350434408e+00 0 0 0
205 1 1 7.7343001532398717e-02 1.4913434167027829e+01 5.1893948397730796e+00 1.7913787354771859e+01 0 0 0
206 1 1 8.1916847020772343e-02 7.2368827594598129e-01 5.1367838941154016e+00 1.7713460184582829e+01 1 0 0
207 1 1 8.1761526914007079e-02 2.9396537722132262e+01 6.9657735806593504e+00 7.4294585388371273e+00 -1 0 0
208 1 1 7.1594413539983040e-02 1.5051647870427484e+01 6.9124084393531868e+00 7.3434689104333479e+00 0 0 0
209 1 1 -2.7627325401207298e-01 7.4676783615572866e+00 3.6441199775569757e+00 1.6101237752051173e+01 0 0 0
210 1 1 -2.9170459211095195e-01 2.2193023688099334e+01 3.5204584774076944e+00 1.6320132674365663e+01 0 0 0
211 1 1 -2.6028754082246947e-01 7.9476861193426487e+00 8.5354169663824688e+00 6.0558582677060580e+00 0 0 0
212 1 1 -2.6725462677465445e-01 2.2473888374633674e+01 8.8545392526991389e+00 5.8487324714169491e+00 0 0 0
213 1 1 -2.6381986640096683e-01 1.5013163218675052e+01 8.9405944569131890e+00 1.5973103275052939e+01 0 0 0
214 1 1 -2.8451605963483773e-01 2.9486753898555150e+01 8.9508538927553829e+00 1.6285097068438102e+01 0 0 0
215 1 1 -2.6589918802778384e-01 6.8301556160050880e-01 3.3636232095168901e+00 5.8805460071166067e+00 0 0 0
216 1 1 -2.7573033428571064e-01 1.4764602783691583e+01 3.3005663302278969e+00 5.9908986335324554e+00 0 0 0
217 1 1 -2.7277433557655267e-01 7.7239746313443147e+00 9.1678009944837662e+00 1.6046912485583253e+01 0 0 0
218 1 1 -2.7933242230838945e-01 2.1956514082646692e+01 9.0887760954767263e+00 1.5974081704388986e+01 0 0 0
219 1 1 -2.6448383289704669e-01 8.0419677812411248e+00 3.1934953151986583e+00 6.2136182232747430e+00 0 0 0
220 1 1 -2.8191355315781885e-01 2.2501695470169661e+01 3.3455048759327490e+00 6.2861536295885863e+00 0 0 0
221 1 1 -2.8138654764823928e-01 1.4736107899133209e+01 3.2540889480667912e+00 1.6425149333592103e+01 0 0 0
222 1 1 -2.6859739087139561e-01 4.9285937364130489e-01 3.3408069317624380e+00 1.5925703091138001e+01 1 0 0
223 1 1 -2.5752391447546524e-01 2.9544469540644688e+01 8.8731917249711323e+00 5.6073074332983133e+00 -1 0 0
224 1 1 -2.8901346233072028e-01 1.5141274371126444e+01 9.0575859667777063e+00 6.0408918248692407e+00 0 0 0
225 1 2 2.8521047040378900e-01 6.5784962214857607e+00 1.1132814113773112e+01 3.9712336324228570e+00 0 0 0
226 1 2 2.6364986137740254e-01 2.0975184643838077e+01 1.1078393062431870e+01 3.8570736911761232e+00 0 0 0
227 1 2 2.7489484802620368e-01 8.8208407960091737e+00 7.7122200270337060e-01 1.4204330971129815e+01 0 0 0
228 1 2 2.7568246479005298e-01 2.3220475833928003e+01 1.1188655555681941e+00 1.3779172553486426e+01 0 0 0
229 1 2 2.7720817785956375e-01 1.3626016911806614e+01 8.5401810043123927e-01 3.7608673594928179e+00 0 0 0
230 1 2 2.8003005920878110e-01 2.8293378849943725e+01 1.0425362221077399e+00 3.7738167775254148e+00 0 0 0
231 1 2 2.5256861343779347e-01 1.7890795572717946e+00 1.1127601804446554e+01 1.3940512111836625e+01 0 0 0
232 1 2 2.6497529820346638e-01 1.6189902779467346e+01 1.1429022362349073e+01 1.4159578960265987e+01 0 0 0
233 1 2 2.9674656056336240e-01 6.6888011319690035e+00 5.2178271484495413e+00 3.9199685021590902e+00 0 0 0
234 1 2 2.5864216574525922e-01 2.1072902340581699e+01 5.6335455986669496e+00 3.8761395089789161e+00 0 0 0
235 1 2 2.9613748072371465e-01 8.9098516762785565e+00 6.4474653944141709e+00 1.3791286923756466e+01 0 0 0
236 1 2 2.6962574827267455e-01 2.3619275972907744e+01 6.7499403512750957e+00 1.4014964351278891e+01 0 0 0
237 1 2 2.4827285946009597e-01 1.3440771405212296e+01 6.7600218146511777e+00 3.5652976263848215e+00 0 0 0
238 1 2 2.7125953518566087e-01 2.8603859566099661e+01 6.3818996534537904e+00 3.4931813430462553e+00 0 0 0
239 1 2 2.6334583007414542e-01 1.7823872936148204e+00 5.4604301700024456e+00 1.3679046699535498e+01 0 0 0
240 1 2 2.6419476623583538e-01 1.6429476864444730e+01 5.8234826086946851e+00 1.4143151411646954e+01 0 0 0
241 1 2 2.7895346487183509e-01 7.5231654073693264e+00 3.0110900788686301e+00 2.4730139747068874e-01 0 0 0
242 1 2 2.7266457575999775e-01 2.1200671086898677e+01 3.5535297496952665e+00 2.6097880851722255e-01 0 0 0
243 1 2 2.4928577263342633e-01 8.8398701367209291e+00 8.3184606683983731e+00 1.0575215318677754e+01 0 0 0
244 1 2 2.5560109938413017e-01 2.3303123292421990e+01 8.6711785314123606e+00 1.0227895712778279e+01 0 0 0
245 1 2 2.3117210870126548e-01 1.3736281653746390e+01 8.4649762724366706e+00 1.4125337305542207e-01 0 0 0
246 1 2 2.4475800200808887e-01 2.8909282893501459e+01 8.3716406494473752e+00 3.0468109831018325e-01 0 0 0
247 1 2 2.7403420812899670e-01 1.2869459318679888e+00 3.3329222030635766e+00 1.0070860441620420e+01 0 0 0
248 1 2 2.4037334480366321e-01 1.5697385305380703e+01 3.9487174496245796e+00 1.0650374741898903e+01 0 0 0
249 1 2 2.8631174654503760e-01 7.6444236284809763e+00 8.7706125207605492e+00 3.4079939768957440e-01 0 0 0
250 1 2 2.6688957925658380e-01 2.1400056190329508e+01 9.2473883334293365e+00 3.9686971934084125e-01 0 0 0
251 1 2 2.4727494676760164e-01 8.3920872093639804e+00 2.9203367538707132e+00 1.0108868472900017e+01 0 0 0
252 1 2 2.8167667912172722e-01 2.2818891253526512e+01 3.2067266115750628e+00 1.0391061117089496e+01 0 0 0
253 1 2 2.5141537235494449e-01 1.4066050486086084e+01 2.9606353227253970e+00 4.1969205057441306e-01 0 0 0
254 1 2 2.3789860105238894e-01 2.8856768104392092e+01 2.6746852354248021e+00 1.7194433807339621e-01 0 0 0
255 1 2 2.6361894420247106e-01 1.2959493758844962e+00 9.1012776395117427e+00 1.0210688897572227e+01 0 0 0
256 1 2 2.5698620605457229e-01 1.6118023043704945e+01 9.2434182633852462e+00 1.0358012303108165e+01 0 0 0
257 1 2 2.6144299844086089e-01 2.8674021080633363e+00 3.3199747890776998e+00 2.4239199996100087e+00 0 0 0
258 1 2 2.5795050054296442e-01 1.6920361024772504e+01 3.1132289258707395e+00 2.8340819374048083e+00 0 0 0
259 1 2 2.5959352257606660e-01 1.3277883669761357e+01 9.5149255089272700e+00 1.2722253668550243e+01 0 0 0
260 1 2 2.5649590395241173e-01 2.7583525199865822e+01 9.5402548752731580e+00 1.2647715867531819e+01 0 0 0
261 1 2 2.7394918604235552e-01 9.4562069703460487e+00 9.3091384499939984e+00 2.6553298437478432e+00 0 0 0
262 1 2 2.6614593934887887e-01 2.4307168520346210e+01 9.4637923432794562e+00 2.2381351128796498e+00 0 0 0
263 1 2 2.6468039576552194e-01 5.7484020949365355e+00 2.6802813460852595e+00 1.2476558085916194e+01 0 0 0
264 1 2 2.5908584231317416e-01 2.0251512692316787e+01 2.8380070595436617e+00 1.2709202385916257e+01 0 0 0
265 1 2 2.8303829982211504e-01 3.1851318690462573e+00 8.8394936791986911e+00 2.5803069985656450e+00 0 0 0
266 1 2 2.6634830676826882e-01 1.6876087615744986e+01 8.4834992941490377e+00 2.4584417756800847e+00 0 0 0
267 1 2 2.6631929654285369e-01 1.2771122873155182e+01 3.3532918272039951e+00 1.2429675993543995e+01 0 0 0
268 1 2 2.6966343897443867e-01 2.7489646486546665e+01 3.7108218402165920e+00 1.2397051512868332e+01 0 0 0
269 1 2 2.8055635442285703e-01 9.4471741963614253e+00 3.8221284660144064e+00 2.5133218109740763e+00 0 0 0
270 1 2 2.5878318205317496e-01 2.4260143487679912e+01 3.8513279447591398e+00 2.1268690592860060e+00 0 0 0
271 1 2 2.6970870121677187e-01 5.7719256293994903e+00 8.5307819517324539e+00 1.2474902345707063e+01 0 0 0
272 1 2 2.7537335899197607e-01 2.0656922167041731e+01 8.2262130761855019e+00 1.2466328356224590e+01 0 0 0
273 1 2 2.8568710238578798e-01 1.0393455624021685e+01 3.7761438685007724e+00 1.5814050018725283e+01 0 0 0
274 1 2 2.8650136486606509e-01 2.5175347290958353e+01 3.6187915874207568e+00 1.6262452522471808e+01 0 0 0
275 1 2 2.8158716703596853e-01 4.9741481724142087e+00 8.2125498502324383e+00 6.3533526210181863e+00 0 0 0
276 1 2 2.8420830770917588e-01 1.9418475747566617e+01 8.6573570452735229e+00 6.0677214049218948e+00 0 0 0
277 1 2 2.7760700117441389e-01 3.5184360732246764e+00 8.5719963919288134e+00 1.6390569993746020e+01 0 0 0
278 1 2 2.5596334750698990e-01 1.7966361246057463e+01 8.4948283871768044e+00 1.6349445838832185e+01 0 0 0
279 1 2 2.7354351574893854e-01 1.1934309007124885e+01 3.4179109599248445e+00 6.1759901900538177e+00 0 0 0