# LAMMPS data file written by OVITO Basic 3.5.3
576 atoms
4 atom types
0.0 17.704000473 xlo xhi
0.0 25.1119995117 ylo yhi
0.0 12.8133266827 zlo zhi
0.0 -3.8734541101 0.0 xy xz yz

Masses

1 12.0107  # C
2 1.00794  # H
3 14.0067  # N
4 15.9994  # O

Atoms  # full

1 1 1 0.0 0.518615781 8.0019388202 11.0924969861
2 1 1 0.0 13.3119308474 17.1100606915 1.7208296966
3 1 1 0.0 -1.9027968279 14.2799386981 8.127493038
4 1 1 0.0 6.8813426888 23.3880605694 4.6858336447
5 1 1 0.0 0.518615781 20.557938576 11.0924969861
6 1 1 0.0 13.3119308474 4.5540609357 1.7208296966
7 1 1 0.0 -1.9027968279 1.7239389423 8.127493038
8 1 1 0.0 6.8813426888 10.8320608136 4.6858336447
9 1 1 0.0 9.370615752 8.0019388202 11.0924969861
10 1 1 0.0 4.4599306109 17.1100606915 1.7208296966
11 1 1 0.0 6.9492036741 14.2799386981 8.127493038
12 1 1 0.0 15.7333429253 23.3880605694 4.6858336447
13 1 1 0.0 9.370615752 20.557938576 11.0924969861
14 1 1 0.0 4.4599306109 4.5540609357 1.7208296966
15 1 1 0.0 6.9492036741 1.7239389423 8.127493038
16 1 1 0.0 15.7333429253 10.8320608136 4.6858336447
17 1 1 0.0 0.1563101391 7.9918938446 8.7566271346
18 1 1 0.0 13.6742364893 17.1201056671 4.0566995481
19 1 1 0.0 -1.540491186 14.2698937225 10.4633628894
20 1 1 0.0 6.5190370469 23.398105545 2.3499637933
21 1 1 0.0 0.1563101391 20.5478936004 8.7566271346
22 1 1 0.0 13.6742364893 4.5641059113 4.0566995481
23 1 1 0.0 -1.540491186 1.7138939667 10.4633628894
24 1 1 0.0 6.5190370469 10.8421057892 2.3499637933
25 1 1 0.0 9.0083101101 7.9918938446 8.7566271346
26 1 1 0.0 4.8222362528 17.1201056671 4.0566995481
27 1 1 0.0 7.311509316 14.2698937225 10.4633628894
28 1 1 0.0 15.3710372834 23.398105545 2.3499637933
29 1 1 0.0 9.0083101101 20.5478936004 8.7566271346
30 1 1 0.0 4.8222362528 4.5641059113 4.0566995481
31 1 1 0.0 7.311509316 1.7138939667 10.4633628894
32 1 1 0.0 15.3710372834 10.8421057892 2.3499637933
33 1 1 0.0 2.1424707356 6.5240971467 8.8745102142
34 1 1 0.0 11.6880756273 18.5879031184 3.9388164685
35 1 1 0.0 14.1773486905 12.8020962712 10.3454798099
36 1 1 0.0 8.5051979089 24.8659029963 2.4678468728
37 1 1 0.0 2.1424707356 19.0800961492 8.8745102142
38 1 1 0.0 11.6880756273 6.0319033625 3.9388164685
39 1 1 0.0 14.1773486905 0.2460965154 10.3454798099
40 1 1 0.0 8.5051979089 12.3099032405 2.4678468728
41 1 1 0.0 10.9944709721 6.5240971467 8.8745102142
42 1 1 0.0 2.8360753908 18.5879031184 3.9388164685
43 1 1 0.0 5.325348454 12.8020962712 10.3454798099
44 1 1 0.0 -0.3468023276 24.8659029963 2.4678468728
45 1 1 0.0 10.9944709721 19.0800961492 8.8745102142
46 1 1 0.0 2.8360753908 6.0319033625 3.9388164685
47 1 1 0.0 5.325348454 0.2460965154 10.3454798099
48 1 1 0.0 -0.3468023276 12.3099032405 2.4678468728
49 1 1 0.0 1.7958431765 7.0589831883 11.1924407292
50 1 1 0.0 12.0347037175 18.05301557 1.6208859535
51 1 1 0.0 14.5239767807 13.3369838196 8.0275492948
52 1 1 0.0 8.1585698187 24.331015448 4.7857773879
53 1 1 0.0 1.7958431765 19.6149836975 11.1924407292
54 1 1 0.0 12.0347037175 5.4970158142 1.6208859535
55 1 1 0.0 14.5239767807 0.7809840637 8.0275492948
56 1 1 0.0 8.1585698187 11.7750156921 4.7857773879
57 1 1 0.0 10.6478428819 7.0589831883 11.1924407292
58 1 1 0.0 3.182703481 18.05301557 1.6208859535
59 1 1 0.0 5.6719765442 13.3369838196 8.0275492948
60 1 1 0.0 -0.6934304178 24.331015448 4.7857773879
61 1 1 0.0 10.6478428819 19.6149836975 11.1924407292
62 1 1 0.0 3.182703481 5.4970158142 1.6208859535
63 1 1 0.0 5.6719765442 0.7809840637 8.0275492948
64 1 1 0.0 -0.6934304178 11.7750156921 4.7857773879
65 1 1 0.0 3.0290336841 7.770908274 9.2448149325
66 1 1 0.0 10.8015126788 17.3410905094 3.5685117502
67 1 1 0.0 13.290785742 14.0489088802 9.9751750916
68 1 1 0.0 9.3917608574 23.6190903874 2.8381515911
69 1 1 0.0 3.0290336841 20.3269087581 9.2448149325
70 1 1 0.0 10.8015126788 4.7850907536 3.5685117502
71 1 1 0.0 13.290785742 1.4929091243 9.9751750916
72 1 1 0.0 9.3917608574 11.0630906315 2.8381515911
73 1 1 0.0 11.8810339206 7.770908274 9.2448149325
74 1 1 0.0 1.9495124423 17.3410905094 3.5685117502
75 1 1 0.0 4.4387855055 14.0489088802 9.9751750916
76 1 1 0.0 0.5397606209 23.6190903874 2.8381515911
77 1 1 0.0 11.8810339206 20.3269087581 9.2448149325
78 1 1 0.0 1.9495124423 4.7850907536 3.5685117502
79 1 1 0.0 4.4387855055 1.4929091243 9.9751750916
80 1 1 0.0 0.5397606209 11.0630906315 2.8381515911
81 1 1 0.0 1.0538813256 9.2274041955 9.1461527527
82 1 1 0.0 12.7766645239 15.8845953162 3.66717393
83 1 1 0.0 -2.4380623725 15.5054040734 10.0738372714
84 1 1 0.0 7.4166084989 22.1625951942 2.7394894113
85 1 1 0.0 1.0538813256 21.7834039513 9.1461527527
86 1 1 0.0 12.7766645239 3.3285955604 3.66717393
87 1 1 0.0 -2.4380623725 2.9494043175 10.0738372714
88 1 1 0.0 7.4166084989 9.6065954383 2.7394894113
89 1 1 0.0 9.9058820755 9.2274041955 9.1461527527
90 1 1 0.0 3.9246642874 15.8845953162 3.66717393
91 1 1 0.0 6.4139373506 15.5054040734 10.0738372714
92 1 1 0.0 16.2686092488 22.1625951942 2.7394894113
93 1 1 0.0 9.9058820755 21.7834039513 9.1461527527
94 1 1 0.0 3.9246642874 3.3285955604 3.66717393
95 1 1 0.0 6.4139373506 2.9494043175 10.0738372714
96 1 1 0.0 16.2686092488 9.6065954383 2.7394894113
97 1 2 0.0 0.1087220724 8.0584404675 11.9330509346
98 1 2 0.0 13.7218240249 17.0535597975 0.8802757481
99 1 2 0.0 -1.4929031193 14.3364395921 7.2869390895
100 1 2 0.0 6.4714495113 23.3315596755 5.5263875932
101 1 2 0.0 0.1087220724 20.61443947 11.9330509346
102 1 2 0.0 13.7218240249 4.4975600417 0.8802757481
103 1 2 0.0 -1.4929031193 1.7804398362 7.2869390895
104 1 2 0.0 6.4714495113 10.7755599196 5.5263875932
105 1 2 0.0 8.9607225745 8.0584404675 11.9330509346
106 1 2 0.0 4.8698237884 17.0535597975 0.8802757481
107 1 2 0.0 7.3590968516 14.3364395921 7.2869390895
108 1 2 0.0 15.3234497478 23.3315596755 5.5263875932
109 1 2 0.0 8.9607225745 20.61443947 11.9330509346
110 1 2 0.0 4.8698237884 4.4975600417 0.8802757481
111 1 2 0.0 7.3590968516 1.7804398362 7.2869390895
112 1 2 0.0 15.3234497478 10.7755599196 5.5263875932
113 1 2 0.0 -0.5579556242 8.2028344898 8.1121167769
114 1 2 0.0 14.3885021287 16.9091642936 4.7012099058
115 1 2 0.0 -0.8262252811 14.480835096 11.1078732472
116 1 2 0.0 5.8047714075 23.1871641716 1.7054534355
117 1 2 0.0 -0.5579556242 20.7588349739 8.1121167769
118 1 2 0.0 14.3885021287 4.3531645378 4.7012099058
119 1 2 0.0 -0.8262252811 1.9248353401 11.1078732472
120 1 2 0.0 5.8047714075 10.6311644157 1.7054534355
121 1 2 0.0 8.2940444707 8.2028344898 8.1121167769
122 1 2 0.0 5.5365018922 16.9091642936 4.7012099058
123 1 2 0.0 8.0257749554 14.480835096 11.1078732472
124 1 2 0.0 14.656771644 23.1871641716 1.7054534355
125 1 2 0.0 8.2940444707 20.7588349739 8.1121167769
126 1 2 0.0 5.5365018922 4.3531645378 4.7012099058
127 1 2 0.0 8.0257749554 1.9248353401 11.1078732472
128 1 2 0.0 14.656771644 10.6311644157 1.7054534355
129 1 2 0.0 2.6234943368 5.8925307105 8.3696646176
130 1 2 0.0 11.207051495 19.2194684245 4.4436620651
131 1 2 0.0 13.6963245582 12.1705309651 10.8503254065
132 1 2 0.0 8.9862220412 0.3854691674 1.9630012762
133 1 2 0.0 2.6234943368 18.4485308431 8.3696646176
134 1 2 0.0 11.207051495 6.6634686686 4.4436620651
135 1 2 0.0 13.6963245582 24.726530721 10.8503254065
136 1 2 0.0 8.9862220412 12.9414685466 1.9630012762
137 1 2 0.0 11.4754951044 5.8925307105 8.3696646176
138 1 2 0.0 2.3550512585 19.2194684245 4.4436620651
139 1 2 0.0 4.8443243217 12.1705309651 10.8503254065
140 1 2 0.0 0.1342218047 0.3854691674 1.9630012762
141 1 2 0.0 11.4754951044 18.4485308431 8.3696646176
142 1 2 0.0 2.3550512585 6.6634686686 4.4436620651
143 1 2 0.0 4.8443243217 24.726530721 10.8503254065
144 1 2 0.0 0.1342218047 12.9414685466 1.9630012762
145 1 2 0.0 1.9102078055 6.7212268702 12.0586217539
146 1 2 0.0 11.9203390886 18.3907726415 0.7547049288
147 1 2 0.0 14.4096121518 12.9992267481 7.1613682701
148 1 2 0.0 8.2729344476 24.6687725194 5.6519584126
149 1 2 0.0 1.9102078055 19.2772266261 12.0586217539
150 1 2 0.0 11.9203390886 5.8347728856 0.7547049288
151 1 2 0.0 14.4096121518 0.4432269923 7.1613682701
152 1 2 0.0 8.2729344476 12.1127727636 5.6519584126
153 1 2 0.0 10.7622075108 6.7212268702 12.0586217539
154 1 2 0.0 3.0683388521 18.3907726415 0.7547049288
155 1 2 0.0 5.5576119153 12.9992267481 7.1613682701
156 1 2 0.0 -0.5790657889 24.6687725194 5.6519584126
157 1 2 0.0 10.7622075108 19.2772266261 12.0586217539
158 1 2 0.0 3.0683388521 5.8347728856 0.7547049288
159 1 2 0.0 5.5576119153 0.4432269923 7.1613682701
160 1 2 0.0 -0.5790657889 12.1127727636 5.6519584126
161 1 2 0.0 3.9008635853 7.7357516254 8.914231245
162 1 2 0.0 9.9296827776 17.3762471581 3.8990954377
163 1 2 0.0 12.4189558408 14.0137522315 10.305758779
164 1 2 0.0 10.2635907586 23.654247036 2.5075679037
165 1 2 0.0 3.9008635853 20.2917521095 8.914231245
166 1 2 0.0 9.9296827776 4.8202474022 3.8990954377
167 1 2 0.0 12.4189558408 1.4577524757 10.305758779
168 1 2 0.0 10.2635907586 11.0982472802 2.5075679037
169 1 2 0.0 12.7528638218 7.7357516254 8.914231245
170 1 2 0.0 1.0776825411 17.3762471581 3.8990954377
171 1 2 0.0 3.5669556043 14.0137522315 10.305758779
172 1 2 0.0 1.4115905221 23.654247036 2.5075679037
173 1 2 0.0 12.7528638218 20.2917521095 8.914231245
174 1 2 0.0 1.0776825411 4.8202474022 3.8990954377
175 1 2 0.0 3.5669556043 1.4577524757 10.305758779
176 1 2 0.0 1.4115905221 11.0982472802 2.5075679037
177 1 2 0.0 0.7541513861 10.0171766554 8.7643156432
178 1 2 0.0 13.0763947112 15.0948221029 4.0490110395
179 1 2 0.0 -2.138332433 16.2951772867 10.4556743809
180 1 2 0.0 7.116878825 21.3728219808 2.3576523018
181 1 2 0.0 0.7541513861 22.5731771647 8.7643156432
182 1 2 0.0 13.0763947112 2.538822347 4.0490110395
183 1 2 0.0 -2.138332433 3.7391775309 10.4556743809
184 1 2 0.0 7.116878825 8.816822225 2.3576523018
185 1 2 0.0 9.6061518882 10.0171766554 8.7643156432
186 1 2 0.0 4.2243944747 15.0948221029 4.0490110395
187 1 2 0.0 6.7136675379 16.2951772867 10.4556743809
188 1 2 0.0 15.9688790615 21.3728219808 2.3576523018
189 1 2 0.0 9.6061518882 22.5731771647 8.7643156432
190 1 2 0.0 4.2243944747 2.538822347 4.0490110395
191 1 2 0.0 6.7136675379 3.7391775309 10.4556743809
192 1 2 0.0 15.9688790615 8.816822225 2.3576523018
193 1 3 0.0 -0.3538516584 7.5000750077 10.0401382863
194 1 3 0.0 14.1843982868 17.611924504 2.7731883964
195 1 3 0.0 -1.0303293885 13.7780748856 9.1798517378
196 1 3 0.0 6.0088752494 23.8899243819 3.6334749449
197 1 3 0.0 -0.3538516584 20.0560747636 10.0401382863
198 1 3 0.0 14.1843982868 5.0559247481 2.7731883964
199 1 3 0.0 -1.0303293885 1.2220751298 9.1798517378
200 1 3 0.0 6.0088752494 11.3339246261 3.6334749449
201 1 3 0.0 8.4981483126 7.5000750077 10.0401382863
202 1 3 0.0 5.3323980503 17.611924504 2.7731883964
203 1 3 0.0 7.8216711135 13.7780748856 9.1798517378
204 1 3 0.0 14.8608754859 23.8899243819 3.6334749449
205 1 3 0.0 8.4981483126 20.0560747636 10.0401382863
206 1 3 0.0 5.3323980503 5.0559247481 2.7731883964
207 1 3 0.0 7.8216711135 1.2220751298 9.1798517378
208 1 3 0.0 14.8608754859 11.3339246261 3.6334749449
209 1 3 0.0 -1.7616144556 7.6076801265 10.2724439503
210 1 3 0.0 15.5921605529 17.5043186318 2.5408827324
211 1 3 0.0 0.3774334087 13.8856807578 8.9475460738
212 1 3 0.0 4.6011129833 23.7823185098 3.8657806089
213 1 3 0.0 -1.7616144556 20.1636806357 10.2724439503
214 1 3 0.0 15.5921605529 4.948318876 2.5408827324
215 1 3 0.0 0.3774334087 1.3296810019 8.9475460738
216 1 3 0.0 4.6011129833 11.2263187539 3.8657806089
217 1 3 0.0 7.0903860465 7.6076801265 10.2724439503
218 1 3 0.0 6.7401603164 17.5043186318 2.5408827324
219 1 3 0.0 9.2294333796 13.8856807578 8.9475460738
220 1 3 0.0 13.4531132198 23.7823185098 3.8657806089
221 1 3 0.0 7.0903860465 20.1636806357 10.2724439503
222 1 3 0.0 6.7401603164 4.948318876 2.5408827324
223 1 3 0.0 9.2294333796 1.3296810019 8.9475460738
224 1 3 0.0 13.4531132198 11.2263187539 3.8657806089
225 1 3 0.0 0.9752028878 6.9629295642 8.1560666027
226 1 3 0.0 12.8553434751 18.1490707009 4.65726008
227 1 3 0.0 -2.3593839347 13.2409286887 11.0639234214
228 1 3 0.0 7.3379300611 24.4270705788 1.7494032613
229 1 3 0.0 0.9752028878 19.5189285666 8.1560666027
230 1 3 0.0 12.8553434751 5.5930709451 4.65726008
231 1 3 0.0 -2.3593839347 0.6849289329 11.0639234214
232 1 3 0.0 7.3379300611 11.871070823 1.7494032613
233 1 3 0.0 9.8272031243 6.9629295642 8.1560666027
234 1 3 0.0 4.0033432386 18.1490707009 4.65726008
235 1 3 0.0 6.4926163018 13.2409286887 11.0639234214
236 1 3 0.0 16.1899302976 24.4270705788 1.7494032613
237 1 3 0.0 9.8272031243 19.5189285666 8.1560666027
238 1 3 0.0 4.0033432386 5.5930709451 4.65726008
239 1 3 0.0 6.4926163018 0.6849289329 11.0639234214
240 1 3 0.0 16.1899302976 11.871070823 1.7494032613
241 1 3 0.0 0.6732132285 6.4336939233 6.9120206382
242 1 3 0.0 13.1573336655 18.6783063417 5.9013060445
243 1 3 0.0 -2.0573942754 12.7116930479 12.3079693859
244 1 3 0.0 7.0359404018 24.9563062197 0.5053572968
245 1 3 0.0 0.6732132285 18.9896929258 6.9120206382
246 1 3 0.0 13.1573336655 6.1223065859 5.9013060445
247 1 3 0.0 -2.0573942754 0.155693292 12.3079693859
248 1 3 0.0 7.0359404018 12.4003064638 0.5053572968
249 1 3 0.0 9.5252129339 6.4336939233 6.9120206382
250 1 3 0.0 4.305333429 18.6783063417 5.9013060445
251 1 3 0.0 6.7946064922 12.7116930479 12.3079693859
252 1 3 0.0 15.8879401072 24.9563062197 0.5053572968
253 1 3 0.0 9.5252129339 18.9896929258 6.9120206382
254 1 3 0.0 4.305333429 6.1223065859 5.9013060445
255 1 3 0.0 6.7946064922 0.155693292 12.3079693859
256 1 3 0.0 15.8879401072 12.4003064638 0.5053572968
257 1 3 0.0 1.7967552026 6.0003868991 10.2026111917
258 1 3 0.0 12.0337916914 19.1116126126 2.610715491
259 1 3 0.0 14.5230647546 12.278386777 9.0173788323
260 1 3 0.0 8.1594818448 0.2776129788 3.7959478504
261 1 3 0.0 1.7967552026 18.556386655 10.2026111917
262 1 3 0.0 12.0337916914 6.5556128567 2.610715491
263 1 3 0.0 14.5230647546 24.8343865329 9.0173788323
264 1 3 0.0 8.1594818448 12.8336127347 3.7959478504
265 1 3 0.0 10.648754908 6.0003868991 10.2026111917
266 1 3 0.0 3.1817914549 19.1116126126 2.610715491
267 1 3 0.0 5.6710645181 12.278386777 9.0173788323
268 1 3 0.0 -0.6925183917 0.2776129788 3.7959478504
269 1 3 0.0 10.648754908 18.556386655 10.2026111917
270 1 3 0.0 3.1817914549 6.5556128567 2.610715491
271 1 3 0.0 5.6710645181 24.8343865329 9.0173788323
272 1 3 0.0 -0.6925183917 12.8336127347 3.7959478504
273 1 3 0.0 0.8777785573 4.9836020138 10.3143439129
274 1 3 0.0 12.9527675401 20.1283982513 2.4989827698
275 1 3 0.0 -2.2619596042 11.2616018917 8.9056461111
276 1 3 0.0 7.2405059961 1.2943978642 3.9076805716
277 1 3 0.0 0.8777785573 17.5396010163 10.3143439129
278 1 3 0.0 12.9527675401 7.5723984954 2.4989827698
279 1 3 0.0 -2.2619596042 23.8176008942 8.9056461111
280 1 3 0.0 7.2405059961 13.8503983734 3.9076805716
281 1 3 0.0 9.7297790593 4.9836020138 10.3143439129
282 1 3 0.0 4.1007673036 20.1283982513 2.4989827698
283 1 3 0.0 6.5900403668 11.2616018917 8.9056461111
284 1 3 0.0 16.0925062326 1.2943978642 3.9076805716
285 1 3 0.0 9.7297790593 17.5396010163 10.3143439129
286 1 3 0.0 4.1007673036 7.5723984954 2.4989827698
287 1 3 0.0 6.5900403668 23.8176008942 8.9056461111
288 1 3 0.0 16.0925062326 13.8503983734 3.9076805716
289 1 3 0.0 3.0116300919 7.70473808 10.7225764242
290 1 3 0.0 10.8189168021 17.4072606784 2.0907502585
291 1 3 0.0 13.3081898653 13.9827387112 8.4974135999
292 1 3 0.0 9.3743567341 23.6852605563 4.3159130828
293 1 3 0.0 3.0116300919 20.2607385892 10.7225764242
294 1 3 0.0 10.8189168021 4.8512609225 2.0907502585
295 1 3 0.0 13.3081898653 1.4267389554 8.4974135999
296 1 3 0.0 9.3743567341 11.1292608005 4.3159130828
297 1 3 0.0 11.8636297973 7.70473808 10.7225764242
298 1 3 0.0 1.9669165656 17.4072606784 2.0907502585
299 1 3 0.0 4.4561896288 13.9827387112 8.4974135999
300 1 3 0.0 0.5223564976 23.6852605563 4.3159130828
301 1 3 0.0 11.8636297973 20.2607385892 10.7225764242
302 1 3 0.0 1.9669165656 4.8512609225 2.0907502585
303 1 3 0.0 4.4561896288 1.4267389554 8.4974135999
304 1 3 0.0 0.5223564976 11.1292608005 4.3159130828
305 1 3 0.0 3.4911632149 8.7628322045 11.4671588249
306 1 3 0.0 10.339383148 16.349166579 1.3461678578
307 1 3 0.0 12.8286562112 15.0408328107 7.7528311992
308 1 3 0.0 9.8538903882 22.6271664569 5.0604954835
309 1 3 0.0 3.4911632149 21.3188326886 11.4671588249
310 1 3 0.0 10.339383148 3.7931668231 1.3461678578
311 1 3 0.0 12.8286562112 2.4848330548 7.7528311992
312 1 3 0.0 9.8538903882 10.071166701 5.0604954835
313 1 3 0.0 12.3431634514 8.7628322045 11.4671588249
314 1 3 0.0 1.4873829115 16.349166579 1.3461678578
315 1 3 0.0 3.9766559747 15.0408328107 7.7528311992
316 1 3 0.0 1.0018901517 22.6271664569 5.0604954835
317 1 3 0.0 12.3431634514 21.3188326886 11.4671588249
318 1 3 0.0 1.4873829115 3.7931668231 1.3461678578
319 1 3 0.0 3.9766559747 2.4848330548 7.7528311992
320 1 3 0.0 1.0018901517 10.071166701 5.0604954835
321 1 3 0.0 2.3945081189 8.9472796149 8.7025555495
322 1 3 0.0 11.436038244 16.1647198968 4.1107711332
323 1 3 0.0 13.9253113072 15.2252794928 10.5174344745
324 1 3 0.0 8.7572352922 22.4427197747 2.2958922082
325 1 3 0.0 2.3945081189 21.5032793708 8.7025555495
326 1 3 0.0 11.436038244 3.6087201409 4.1107711332
327 1 3 0.0 13.9253113072 2.669279737 10.5174344745
328 1 3 0.0 8.7572352922 9.8867200189 2.2958922082
329 1 3 0.0 11.2465083554 8.9472796149 8.7025555495
330 1 3 0.0 2.5840380075 16.1647198968 4.1107711332
331 1 3 0.0 5.0733110707 15.2252794928 10.5174344745
332 1 3 0.0 -0.0947649443 22.4427197747 2.2958922082
333 1 3 0.0 11.2465083554 21.5032793708 8.7025555495
334 1 3 0.0 2.5840380075 3.6087201409 4.1107711332
335 1 3 0.0 5.0733110707 2.669279737 10.5174344745
336 1 3 0.0 -0.0947649443 9.8867200189 2.2958922082
337 1 3 0.0 3.213700812 10.0234549567 8.2854812919
338 1 3 0.0 10.6168455509 15.088544555 4.5278453908
339 1 3 0.0 13.1061186141 16.3014548346 10.9345087322
340 1 3 0.0 9.5764279853 21.366544433 1.8788179505
341 1 3 0.0 3.213700812 22.5794547125 8.2854812919
342 1 3 0.0 10.6168455509 2.5325447992 4.5278453908
343 1 3 0.0 13.1061186141 3.7454550787 10.9345087322
344 1 3 0.0 9.5764279853 8.8105446771 1.8788179505
345 1 3 0.0 12.0657010485 10.0234549567 8.2854812919
346 1 3 0.0 1.7648453144 15.088544555 4.5278453908
347 1 3 0.0 4.2541183776 16.3014548346 10.9345087322
348 1 3 0.0 0.7244277488 21.366544433 1.8788179505
349 1 3 0.0 12.0657010485 22.5794547125 8.2854812919
350 1 3 0.0 1.7648453144 2.5325447992 4.5278453908
351 1 3 0.0 4.2541183776 3.7454550787 10.9345087322
352 1 3 0.0 0.7244277488 8.8105446771 1.8788179505
353 1 3 0.0 0.9697347885 9.302739968 10.6075122893
354 1 3 0.0 12.86081184 15.8092587904 2.2058143934
355 1 3 0.0 -2.3539158354 15.5807405993 8.6124777348
356 1 3 0.0 7.3324616962 22.0872586683 4.2008489479
357 1 3 0.0 0.9697347885 21.8587404772 10.6075122893
358 1 3 0.0 12.86081184 3.2532590345 2.2058143934
359 1 3 0.0 -2.3539158354 3.0247408434 8.6124777348
360 1 3 0.0 7.3324616962 9.5312589124 4.2008489479
361 1 3 0.0 9.8217347594 9.302739968 10.6075122893
362 1 3 0.0 4.0088116035 15.8092587904 2.2058143934
363 1 3 0.0 6.4980846667 15.5807405993 8.6124777348
364 1 3 0.0 16.1844619327 22.0872586683 4.2008489479
365 1 3 0.0 9.8217347594 21.8587404772 10.6075122893
366 1 3 0.0 4.0088116035 3.2532590345 2.2058143934
367 1 3 0.0 6.4980846667 3.0247408434 8.6124777348
368 1 3 0.0 16.1844619327 9.5312589124 4.2008489479
369 1 3 0.0 0.3284035311 10.4356684286 11.1770652369
370 1 3 0.0 13.5021428318 14.6763310831 1.6362614458
371 1 3 0.0 -1.712584578 16.7136683066 8.0429247871
372 1 3 0.0 6.6911307044 20.954330961 4.7704018956
373 1 3 0.0 0.3284035311 22.9916681845 11.1770652369
374 1 3 0.0 13.5021428318 2.1203313272 1.6362614458
375 1 3 0.0 -1.712584578 4.1576685507 8.0429247871
376 1 3 0.0 6.6911307044 8.3983312051 4.7704018956
377 1 3 0.0 9.1804037676 10.4356684286 11.1770652369
378 1 3 0.0 4.6501425953 14.6763310831 1.6362614458
379 1 3 0.0 7.1394156585 16.7136683066 8.0429247871
380 1 3 0.0 15.5431309409 20.954330961 4.7704018956
381 1 3 0.0 9.1804037676 22.9916681845 11.1770652369
382 1 3 0.0 4.6501425953 2.1203313272 1.6362614458
383 1 3 0.0 7.1394156585 4.1576685507 8.0429247871
384 1 3 0.0 15.5431309409 8.3983312051 4.7704018956
385 1 4 0.0 -2.4639673198 7.7267110042 9.2986314427
386 1 4 0.0 16.294514143 17.3852877793 3.51469524
387 1 4 0.0 1.0797862021 14.0047116104 9.9213585813
388 1 4 0.0 3.8987599243 23.6632876572 2.8919681014
389 1 4 0.0 -2.4639673198 20.2827114883 9.2986314427
390 1 4 0.0 16.294514143 4.8292880234 3.51469524
391 1 4 0.0 1.0797862021 1.4487118545 9.9213585813
392 1 4 0.0 3.8987599243 11.1072879013 2.8919681014
393 1 4 0.0 6.3880324564 7.7267110042 9.2986314427
394 1 4 0.0 7.4425139065 17.3852877793 3.51469524
395 1 4 0.0 9.9317869697 14.0047116104 9.9213585813
396 1 4 0.0 12.7507596297 23.6632876572 2.8919681014
397 1 4 0.0 6.3880324564 20.2827114883 9.2986314427
398 1 4 0.0 7.4425139065 4.8292880234 3.51469524
399 1 4 0.0 9.9317869697 1.4487118545 9.9213585813
400 1 4 0.0 12.7507596297 11.1072879013 2.8919681014
401 1 4 0.0 -2.1093403595 7.492165205 11.4256437746
402 1 4 0.0 15.9398861913 17.619835035 1.3876829081
403 1 4 0.0 0.7251593126 13.7701643547 7.7943462495
404 1 4 0.0 4.2533868138 23.8978349129 5.0189804332
405 1 4 0.0 -2.1093403595 20.0481642326 11.4256437746
406 1 4 0.0 15.9398861913 5.0638352791 1.3876829081
407 1 4 0.0 0.7251593126 1.2141645988 7.7943462495
408 1 4 0.0 4.2533868138 11.341835157 5.0189804332
409 1 4 0.0 6.7426604081 7.492165205 11.4256437746
410 1 4 0.0 7.0878859548 17.619835035 1.3876829081
411 1 4 0.0 9.577159018 13.7701643547 7.7943462495
412 1 4 0.0 13.1053875814 23.8978349129 5.0189804332
413 1 4 0.0 6.7426604081 20.0481642326 11.4256437746
414 1 4 0.0 7.0878859548 5.0638352791 1.3876829081
415 1 4 0.0 9.577159018 1.2141645988 7.7943462495
416 1 4 0.0 13.1053875814 11.341835157 5.0189804332
417 1 4 0.0 1.3431534552 5.4922455388 6.53479648
418 1 4 0.0 12.4873931733 19.6197539729 6.2785302027
419 1 4 0.0 -2.7273345021 11.7702454167 12.685193544
420 1 4 0.0 7.7058803629 0.7857543392 0.1281331387
421 1 4 0.0 1.3431534552 18.0482452946 6.53479648
422 1 4 0.0 12.4873931733 7.0637542171 6.2785302027
423 1 4 0.0 -2.7273345021 24.3262451725 12.685193544
424 1 4 0.0 7.7058803629 13.341754095 0.1281331387
425 1 4 0.0 10.1951534261 5.4922455388 6.53479648
426 1 4 0.0 3.6353929368 19.6197539729 6.2785302027
427 1 4 0.0 6.124666 11.7702454167 12.685193544
428 1 4 0.0 16.5578805994 0.7857543392 0.1281331387
429 1 4 0.0 10.1951534261 18.0482452946 6.53479648
430 1 4 0.0 3.6353929368 7.0637542171 6.2785302027
431 1 4 0.0 6.124666 24.3262451725 12.685193544
432 1 4 0.0 16.5578805994 13.341754095 0.1281331387
433 1 4 0.0 -0.2185869708 6.967324139 6.3042848227
434 1 4 0.0 14.0491329265 18.1446761261 6.50904186
435 1 4 0.0 2.707860158 13.2453232635 0.1023785186
436 1 4 0.0 2.2706859684 24.422676004 12.7109481641
437 1 4 0.0 -0.2185869708 19.5233231415 6.3042848227
438 1 4 0.0 14.0491329265 5.5886763702 6.50904186
439 1 4 0.0 2.707860158 0.6893235077 0.1023785186
440 1 4 0.0 2.2706859684 11.8666762482 12.7109481641
441 1 4 0.0 8.6334136729 6.967324139 6.3042848227
442 1 4 0.0 5.19713269 18.1446761261 6.50904186
443 1 4 0.0 11.5598598633 13.2453232635 0.1023785186
444 1 4 0.0 11.1226867361 24.422676004 12.7109481641
445 1 4 0.0 8.6334136729 19.5233231415 6.3042848227
446 1 4 0.0 5.19713269 5.5886763702 6.50904186
447 1 4 0.0 11.5598598633 0.6893235077 0.1023785186
448 1 4 0.0 11.1226867361 11.8666762482 12.7109481641
449 1 4 0.0 0.7516081179 4.2656497217 9.3437337376
450 1 4 0.0 13.0789379794 20.8463494133 3.4695929451
451 1 4 0.0 -2.1357891648 10.5436499763 9.8762562865
452 1 4 0.0 7.1143355568 2.0123501562 2.9370703962
453 1 4 0.0 0.7516081179 16.8216498542 9.3437337376
454 1 4 0.0 13.0789379794 8.2903496575 3.4695929451
455 1 4 0.0 -2.1357891648 23.0996497322 9.8762562865
456 1 4 0.0 7.1143355568 14.5683495354 2.9370703962
457 1 4 0.0 9.60360862 4.2656497217 9.3437337376
458 1 4 0.0 4.2269377429 20.8463494133 3.4695929451
459 1 4 0.0 6.7162108061 10.5436499763 9.8762562865
460 1 4 0.0 15.9663357933 2.0123501562 2.9370703962
461 1 4 0.0 9.60360862 16.8216498542 9.3437337376
462 1 4 0.0 4.2269377429 8.2903496575 3.4695929451
463 1 4 0.0 6.7162108061 23.0996497322 9.8762562865
464 1 4 0.0 15.9663357933 14.5683495354 2.9370703962
465 1 4 0.0 0.3034073008 4.8739878346 11.3856661312
466 1 4 0.0 13.5271390621 20.2380113005 1.4276605515
467 1 4 0.0 -1.6875883477 11.1519880892 7.8343238928
468 1 4 0.0 6.6661344741 1.4040120434 4.9790027899
469 1 4 0.0 0.3034073008 17.4299879671 11.3856661312
470 1 4 0.0 13.5271390621 7.6820115446 1.4276605515
471 1 4 0.0 -1.6875883477 23.707987845 7.8343238928
472 1 4 0.0 6.6661344741 13.9600114225 4.9790027899
473 1 4 0.0 9.1554075373 4.8739878346 11.3856661312
474 1 4 0.0 4.6751388256 20.2380113005 1.4276605515
475 1 4 0.0 7.1644118888 11.1519880892 7.8343238928
476 1 4 0.0 15.5181347106 1.4040120434 4.9790027899
477 1 4 0.0 9.1554075373 17.4299879671 11.3856661312
478 1 4 0.0 4.6751388256 7.6820115446 1.4276605515
479 1 4 0.0 7.1644118888 23.707987845 7.8343238928
480 1 4 0.0 15.5181347106 13.9600114225 4.9790027899
481 1 4 0.0 4.216743358 9.5541111835 10.8970934082
482 1 4 0.0 9.6138030049 15.5578875748 1.9162332745
483 1 4 0.0 12.1030760681 15.8321118148 8.3228966158
484 1 4 0.0 10.5794705313 21.8358874527 4.4904300669
485 1 4 0.0 4.216743358 22.1101116928 10.8970934082
486 1 4 0.0 9.6138030049 3.0018878189 1.9162332745
487 1 4 0.0 12.1030760681 3.276112059 8.3228966158
488 1 4 0.0 10.5794705313 9.2798876969 4.4904300669
489 1 4 0.0 13.0687435945 9.5541111835 10.8970934082
490 1 4 0.0 0.7618027684 15.5578875748 1.9162332745
491 1 4 0.0 3.2510758316 15.8321118148 8.3228966158
492 1 4 0.0 1.7274702948 21.8358874527 4.4904300669
493 1 4 0.0 13.0687435945 22.1101116928 10.8970934082
494 1 4 0.0 0.7618027684 3.0018878189 1.9162332745
495 1 4 0.0 3.2510758316 3.276112059 8.3228966158
496 1 4 0.0 1.7274702948 9.2798876969 4.4904300669
497 1 4 0.0 3.1639175438 8.7854330041 12.6375281481
498 1 4 0.0 10.666628288 16.3265665076 0.1757985346
499 1 4 0.0 13.1559013512 15.063432882 6.5824618759
500 1 4 0.0 9.5266452482 22.6045663856 6.2308648068
501 1 4 0.0 3.1639175438 21.3414327599 12.6375281481
502 1 4 0.0 10.666628288 3.7705667518 0.1757985346
503 1 4 0.0 13.1559013512 2.5074331261 6.5824618759
504 1 4 0.0 9.5266452482 10.0485666297 6.2308648068
505 1 4 0.0 12.0159183114 8.7854330041 12.6375281481
506 1 4 0.0 1.8146280515 16.3265665076 0.1757985346
507 1 4 0.0 4.3039011147 15.063432882 6.5824618759
508 1 4 0.0 0.6746450117 22.6045663856 6.2308648068
509 1 4 0.0 12.0159183114 21.3414327599 12.6375281481
510 1 4 0.0 1.8146280515 3.7705667518 0.1757985346
511 1 4 0.0 4.3039011147 2.5074331261 6.5824618759
512 1 4 0.0 0.6746450117 10.0485666297 6.2308648068
513 1 4 0.0 2.7034982277 11.1190908424 8.2953479763
514 1 4 0.0 11.1270476041 13.9929079159 4.5179787064
515 1 4 0.0 13.6163206673 17.3970914737 10.9246420478
516 1 4 0.0 9.0662259321 20.2709077938 1.8886846349
517 1 4 0.0 2.7034982277 23.6750913517 8.2953479763
518 1 4 0.0 11.1270476041 1.43690816 4.5179787064
519 1 4 0.0 13.6163206673 4.8410917179 10.9246420478
520 1 4 0.0 9.0662259321 7.714908038 1.8886846349
521 1 4 0.0 11.5554989953 11.1190908424 8.2953479763
522 1 4 0.0 2.2750473676 13.9929079159 4.5179787064
523 1 4 0.0 4.7643204308 17.3970914737 10.9246420478
524 1 4 0.0 0.2142256956 20.2709077938 1.8886846349
525 1 4 0.0 11.5554989953 23.6750913517 8.2953479763
526 1 4 0.0 2.2750473676 1.43690816 4.5179787064
527 1 4 0.0 4.7643204308 4.8410917179 10.9246420478
528 1 4 0.0 0.2142256956 7.714908038 1.8886846349
529 1 4 0.0 4.3285965166 9.7341640192 7.9238892385
530 1 4 0.0 9.5019503774 15.3778354925 4.8894374442
531 1 4 0.0 11.9912234406 16.0121638971 11.2961007855
532 1 4 0.0 10.6913231588 21.6558353705 1.5172258972
533 1 4 0.0 4.3285965166 22.290163775 7.9238892385
534 1 4 0.0 9.5019503774 2.8218357367 4.8894374442
535 1 4 0.0 11.9912234406 3.4561641412 11.2961007855
536 1 4 0.0 10.6913231588 9.0998356146 1.5172258972
537 1 4 0.0 13.180596222 9.7341640192 7.9238892385
538 1 4 0.0 0.6499501409 15.3778354925 4.8894374442
539 1 4 0.0 3.1392232041 16.0121638971 11.2961007855
540 1 4 0.0 1.8393229223 21.6558353705 1.5172258972
541 1 4 0.0 13.180596222 22.290163775 7.9238892385
542 1 4 0.0 0.6499501409 2.8218357367 4.8894374442
543 1 4 0.0 3.1392232041 3.4561641412 11.2961007855
544 1 4 0.0 1.8393229223 9.0998356146 1.5172258972
545 1 4 0.0 0.3841185831 11.4516996778 10.5271728463
546 1 4 0.0 13.4464280453 13.6602998339 2.2861538364
547 1 4 0.0 -1.76829963 17.7296995557 8.6928171778
548 1 4 0.0 6.7468454909 19.9382997119 4.1205095049
549 1 4 0.0 0.3841185831 24.0076994336 10.5271728463
550 1 4 0.0 13.4464280453 1.1043000781 2.2861538364
551 1 4 0.0 -1.76829963 5.1736997998 8.6928171778
552 1 4 0.0 6.7468454909 7.382299956 4.1205095049
553 1 4 0.0 9.2361185541 11.4516996778 10.5271728463
554 1 4 0.0 4.5944278088 13.6602998339 2.2861538364
555 1 4 0.0 7.083700872 17.7296995557 8.6928171778
556 1 4 0.0 15.5988457274 19.9382997119 4.1205095049
557 1 4 0.0 9.2361185541 24.0076994336 10.5271728463
558 1 4 0.0 4.5944278088 1.1043000781 2.2861538364
559 1 4 0.0 7.083700872 5.1736997998 8.6928171778
560 1 4 0.0 15.5988457274 7.382299956 4.1205095049
561 1 4 0.0 -0.1546108128 10.2872562855 12.2741420881
562 1 4 0.0 13.9851569101 14.8247439795 0.5391845946
563 1 4 0.0 -1.2295702341 16.5652554101 6.945847936
564 1 4 0.0 6.2081166261 21.1027438575 5.8674787467
565 1 4 0.0 -0.1546108128 22.843255288 12.2741420881
566 1 4 0.0 13.9851569101 2.2687442237 0.5391845946
567 1 4 0.0 -1.2295702341 4.0092556542 6.945847936
568 1 4 0.0 6.2081166261 8.5467441016 5.8674787467
569 1 4 0.0 8.6973896893 10.2872562855 12.2741420881
570 1 4 0.0 5.1331566736 14.8247439795 0.5391845946
571 1 4 0.0 7.6224297368 16.5652554101 6.945847936
572 1 4 0.0 15.0601168626 21.1027438575 5.8674787467
573 1 4 0.0 8.6973896893 22.843255288 12.2741420881
574 1 4 0.0 5.1331566736 2.2687442237 0.5391845946
575 1 4 0.0 7.6224297368 4.0092556542 6.945847936