ITEM: TIMESTEP
0
ITEM: NUMBER OF ATOMS
576
ITEM: BOX BOUNDS xy xz yz pp pp pp
-3.8734541101000000e+00 1.7704000473000001e+01 0.0000000000000000e+00
0.0000000000000000e+00 2.5111999511699999e+01 -3.8734541101000000e+00
0.0000000000000000e+00 1.2813326682700000e+01 0.0000000000000000e+00
ITEM: ATOMS id type xs ys zs
1 1 0.221345 0.317111 0.868316
2 1 0.778657 0.682888 0.131685
3 1 0.0286559 0.567111 0.631686
4 1 0.471343 0.932888 0.368314
5 1 0.221344 0.817111 0.868315
6 1 0.778657 0.182888 0.131685
7 1 0.0286559 0.0671112 0.631686
8 1 0.471343 0.432888 0.368314
9 1 0.721343 0.317111 0.868315
10 1 0.278657 0.682888 0.131685
11 1 0.528657 0.567112 0.631685
12 1 0.971343 0.932888 0.368315
13 1 0.721343 0.817112 0.868314
14 1 0.278657 0.182888 0.131685
15 1 0.528657 0.0671117 0.631686
16 1 0.971343 0.432888 0.368315
17 1 0.155522 0.317822 0.682951
18 1 0.844459 0.682174 0.317034
19 1 0.0944651 0.567825 0.817039
20 1 0.405541 0.932174 0.182966
21 1 0.155531 0.817824 0.682957
22 1 0.844459 0.182174 0.317034
23 1 0.0944643 0.0678249 0.817038
24 1 0.405541 0.432174 0.182965
25 1 0.655536 0.317825 0.682961
26 1 0.344461 0.682174 0.317036
27 1 0.594461 0.567826 0.817036
28 1 0.905541 0.932174 0.182966
29 1 0.655543 0.817827 0.682967
30 1 0.344462 0.182174 0.317037
31 1 0.594457 0.0678265 0.817033
32 1 0.90554 0.432174 0.182965
33 1 0.275452 0.256672 0.692902
34 1 0.724547 0.743327 0.307096
35 1 0.974547 0.506673 0.807097
36 1 0.525453 0.993327 0.192904
37 1 0.275453 0.756672 0.692902
38 1 0.724547 0.243327 0.307096
39 1 0.974547 0.00667269 0.807097
40 1 0.525453 0.493327 0.192904
41 1 0.775453 0.256673 0.692903
42 1 0.224547 0.743327 0.307096
43 1 0.474547 0.506673 0.807096
44 1 0.0254528 0.993327 0.192904
45 1 0.775453 0.756673 0.692904
46 1 0.224547 0.243327 0.307097
47 1 0.474547 0.00667347 0.807096
48 1 0.0254528 0.493327 0.192904
49 1 0.296104 0.279286 0.875668
50 1 0.703895 0.720715 0.124331
51 1 0.953897 0.529286 0.624332
52 1 0.546104 0.970715 0.375669
53 1 0.296104 0.779286 0.875668
54 1 0.703895 0.220715 0.124331
55 1 0.953897 0.0292858 0.624332
56 1 0.546104 0.470715 0.375669
57 1 0.796105 0.279285 0.875669
58 1 0.203895 0.720715 0.124331
59 1 0.453895 0.529285 0.624331
60 1 0.0461045 0.970715 0.375669
61 1 0.796104 0.779285 0.875669
62 1 0.203895 0.220715 0.124331
63 1 0.453895 0.0292852 0.624331
64 1 0.0461046 0.470715 0.375669
65 1 0.33329 0.309383 0.722084
66 1 0.666711 0.690618 0.277916
67 1 0.91671 0.559382 0.777916
68 1 0.583289 0.940618 0.222084
69 1 0.33329 0.809382 0.722084
70 1 0.666711 0.190618 0.277916
71 1 0.91671 0.0593822 0.777916
72 1 0.583289 0.440618 0.222084
73 1 0.833289 0.309382 0.722084
74 1 0.166711 0.690618 0.277916
75 1 0.416711 0.559382 0.777916
76 1 0.0832888 0.940618 0.222084
77 1 0.833289 0.809382 0.722084
78 1 0.166711 0.190618 0.277916
79 1 0.416711 0.0593816 0.777916
80 1 0.0832889 0.440618 0.222084
81 1 0.215102 0.368515 0.713587
82 1 0.784897 0.631499 0.286408
83 1 0.0348972 0.618505 0.786409
84 1 0.465103 0.881499 0.213592
85 1 0.215103 0.868509 0.713589
86 1 0.784897 0.131499 0.286408
87 1 0.0348972 0.118505 0.786409
88 1 0.465103 0.381499 0.213592
89 1 0.715103 0.368505 0.713591
90 1 0.284897 0.631498 0.286408
91 1 0.534897 0.618502 0.786408
92 1 0.965103 0.881499 0.213592
93 1 0.715103 0.8685 0.713593
94 1 0.284897 0.131497 0.286408
95 1 0.534897 0.1185 0.786407
96 1 0.965103 0.381499 0.213592
97 2 0.207566 0.321348 0.943383
98 2 0.792434 0.678652 0.0566168
99 2 0.042434 0.571348 0.556617
100 2 0.457566 0.928652 0.443383
101 2 0.207566 0.821348 0.943383
102 2 0.792434 0.178652 0.0566168
103 2 0.042434 0.0713481 0.556617
104 2 0.457566 0.428652 0.443383
105 2 0.707566 0.321348 0.943383
106 2 0.292434 0.678652 0.0566168
107 2 0.542434 0.571348 0.556617
108 2 0.957566 0.928652 0.443383
109 2 0.707566 0.821348 0.943383
110 2 0.292434 0.178652 0.0566168
111 2 0.542434 0.0713482 0.556617
112 2 0.957566 0.428652 0.443383
113 2 0.0974511 0.328238 0.627136
114 2 0.902549 0.671762 0.372863
115 2 0.152549 0.578238 0.872863
116 2 0.347451 0.921762 0.127137
117 2 0.0974511 0.828238 0.627136
118 2 0.902549 0.171762 0.372863
119 2 0.152549 0.0782376 0.872863
120 2 0.347451 0.421762 0.127137
121 2 0.597451 0.328238 0.627136
122 2 0.402549 0.671762 0.372863
123 2 0.652549 0.578238 0.872863
124 2 0.847451 0.921762 0.127137
125 2 0.597451 0.828238 0.627137
126 2 0.402549 0.171762 0.372864
127 2 0.652549 0.0782376 0.872863
128 2 0.847451 0.421762 0.127137
129 2 0.294811 0.227464 0.643576
130 2 0.705189 0.772536 0.356424
131 2 0.955189 0.477464 0.856424
132 2 0.544811 0.0225362 0.143576
133 2 0.294811 0.727464 0.643576
134 2 0.705189 0.272536 0.356424
135 2 0.955189 0.977464 0.856424
136 2 0.544811 0.522536 0.143576
137 2 0.794811 0.227464 0.643576
138 2 0.205189 0.772536 0.356424
139 2 0.455189 0.477464 0.856424
140 2 0.0448107 0.0225362 0.143576
141 2 0.794811 0.727464 0.643576
142 2 0.205189 0.272536 0.356424
143 2 0.455189 0.977464 0.856424
144 2 0.0448107 0.522536 0.143576
145 2 0.319186 0.264421 0.957276
146 2 0.680814 0.735579 0.042724
147 2 0.930814 0.514421 0.542724
148 2 0.569186 0.985579 0.457276
149 2 0.319186 0.764421 0.957276
150 2 0.680814 0.235579 0.0427239
151 2 0.930814 0.0144209 0.542724
152 2 0.569186 0.485579 0.457276
153 2 0.819186 0.264421 0.957276
154 2 0.180814 0.735579 0.042724
155 2 0.430814 0.514421 0.542724
156 2 0.0691862 0.985579 0.457276
157 2 0.819186 0.764421 0.957276
158 2 0.180814 0.235579 0.042724
159 2 0.430814 0.0144209 0.542724
160 2 0.0691862 0.485579 0.457276
161 2 0.384127 0.307478 0.690191
162 2 0.615873 0.692522 0.309809
163 2 0.865873 0.557478 0.809809
164 2 0.634127 0.942522 0.190191
165 2 0.384127 0.807478 0.690191
166 2 0.615873 0.192522 0.309809
167 2 0.865873 0.0574776 0.809809
168 2 0.634127 0.442522 0.190191
169 2 0.884127 0.307478 0.690191
170 2 0.115873 0.692522 0.309809
171 2 0.365873 0.557478 0.809809
172 2 0.134127 0.942522 0.190191
173 2 0.884127 0.807478 0.690191
174 2 0.115873 0.192522 0.309809
175 2 0.365873 0.0574776 0.809809
176 2 0.134127 0.442522 0.190191
177 2 0.187352 0.406285 0.678484
178 2 0.812648 0.593715 0.321516
179 2 0.0626483 0.656285 0.821516
180 2 0.437352 0.843715 0.178484
181 2 0.187352 0.906285 0.678484
182 2 0.812648 0.0937146 0.321516
183 2 0.0626483 0.156285 0.821516
184 2 0.437352 0.343715 0.178484
185 2 0.687352 0.406285 0.678484
186 2 0.312648 0.593715 0.321516
187 2 0.562648 0.656285 0.821516
188 2 0.937352 0.843715 0.178484
189 2 0.687352 0.906285 0.678484
190 2 0.312648 0.0937147 0.321516
191 2 0.562648 0.156285 0.821516
192 2 0.937352 0.343715 0.178484
193 3 0.152391 0.295553 0.785807
194 3 0.847608 0.704444 0.214206
195 3 0.0976077 0.545556 0.714201
196 3 0.402392 0.954443 0.285794
197 3 0.152392 0.795555 0.785801
198 3 0.847608 0.204444 0.214206
199 3 0.0976077 0.0455558 0.714202
200 3 0.402392 0.454444 0.285794
201 3 0.652391 0.295555 0.785797
202 3 0.347608 0.704444 0.214205
203 3 0.597608 0.545556 0.714205
204 3 0.902392 0.954444 0.285794
205 3 0.652392 0.795557 0.785792
206 3 0.347609 0.204444 0.214204
207 3 0.597608 0.0455567 0.714208
208 3 0.902392 0.454444 0.285794
209 3 0.0730885 0.303393 0.80411
210 3 0.926911 0.696607 0.19589
211 3 0.176911 0.553393 0.69589
212 3 0.323089 0.946607 0.30411
213 3 0.0730885 0.803393 0.80411
214 3 0.926911 0.196607 0.19589
215 3 0.176911 0.0533927 0.69589
216 3 0.323089 0.446607 0.30411
217 3 0.573089 0.303393 0.80411
218 3 0.426911 0.696607 0.19589
219 3 0.676911 0.553393 0.69589
220 3 0.823089 0.946607 0.30411
221 3 0.573089 0.803393 0.804109
222 3 0.426911 0.196607 0.19589
223 3 0.676911 0.0533927 0.695891
224 3 0.823089 0.446607 0.30411
225 3 0.195865 0.276948 0.637035
226 3 0.804138 0.723046 0.362957
227 3 0.0541375 0.526952 0.86296
228 3 0.445862 0.973046 0.137043
229 3 0.195863 0.776951 0.637039
230 3 0.804138 0.223046 0.362957
231 3 0.0541377 0.0269523 0.862959
232 3 0.445862 0.473046 0.137043
233 3 0.695863 0.276952 0.637041
234 3 0.304138 0.723047 0.362958
235 3 0.554138 0.526953 0.862958
236 3 0.945862 0.973046 0.137043
237 3 0.695862 0.776954 0.637044
238 3 0.304138 0.223047 0.362958
239 3 0.554138 0.0269542 0.862956
240 3 0.945862 0.473046 0.137043
241 3 0.152248 0.253504 0.533029
242 3 0.847752 0.746496 0.466971
243 3 0.0977523 0.503504 0.966971
244 3 0.402248 0.996496 0.0330292
245 3 0.152248 0.753504 0.533029
246 3 0.847752 0.246496 0.466971
247 3 0.0977523 0.00350378 0.966971
248 3 0.402248 0.496496 0.0330292
249 3 0.652248 0.253504 0.533029
250 3 0.347752 0.746496 0.466971
251 3 0.597752 0.503504 0.966971
252 3 0.902248 0.996496 0.0330292
253 3 0.652248 0.753504 0.533029
254 3 0.347752 0.246496 0.466971
255 3 0.597752 0.00350379 0.966971
256 3 0.902248 0.496496 0.0330292
257 3 0.283815 0.234541 0.798678
258 3 0.716185 0.765458 0.201325
259 3 0.966185 0.484542 0.701323
260 3 0.533815 0.0154584 0.298675
261 3 0.283815 0.734541 0.798677
262 3 0.716185 0.265458 0.201325
263 3 0.966185 0.984542 0.701323
264 3 0.533815 0.515458 0.298675
265 3 0.783815 0.234541 0.798676
266 3 0.216185 0.765459 0.201325
267 3 0.466185 0.484541 0.701325
268 3 0.0338149 0.0154585 0.298675
269 3 0.783815 0.734542 0.798675
270 3 0.216185 0.265459 0.201324
271 3 0.466185 0.984542 0.701325
272 3 0.0338149 0.515459 0.298675
273 3 0.222141 0.195533 0.804897
274 3 0.777859 0.804467 0.195103
275 3 0.0278589 0.445533 0.695103
276 3 0.472141 0.0544668 0.304897
277 3 0.222141 0.695533 0.804897
278 3 0.777859 0.304467 0.195103
279 3 0.0278588 0.945533 0.695103
280 3 0.472141 0.554467 0.304897
281 3 0.722141 0.195533 0.804897
282 3 0.277859 0.804467 0.195103
283 3 0.527859 0.445533 0.695103
284 3 0.972141 0.0544668 0.304897
285 3 0.722141 0.695533 0.804897
286 3 0.277859 0.304467 0.195103
287 3 0.527859 0.945533 0.695103
288 3 0.972141 0.554467 0.304897
289 3 0.359496 0.304308 0.837348
290 3 0.640504 0.695692 0.162654
291 3 0.890504 0.554308 0.662653
292 3 0.609496 0.945692 0.337346
293 3 0.359496 0.804308 0.837348
294 3 0.640504 0.195692 0.162654
295 3 0.890504 0.0543075 0.662653
296 3 0.609496 0.445692 0.337346
297 3 0.859496 0.304308 0.837347
298 3 0.140504 0.695692 0.162653
299 3 0.390504 0.554308 0.662653
300 3 0.109496 0.945692 0.337346
301 3 0.859496 0.804308 0.837346
302 3 0.140504 0.195692 0.162653
303 3 0.390504 0.0543079 0.662654
304 3 0.109496 0.445692 0.337346
305 3 0.396654 0.351731 0.898307
306 3 0.603346 0.648269 0.101693
307 3 0.853346 0.601731 0.601693
308 3 0.646654 0.898269 0.398307
309 3 0.396654 0.851731 0.898307
310 3 0.603346 0.148269 0.101693
311 3 0.853346 0.101731 0.601694
312 3 0.646654 0.398269 0.398307
313 3 0.896654 0.351731 0.898307
314 3 0.103346 0.648269 0.101693
315 3 0.353346 0.601731 0.601693
316 3 0.146654 0.898269 0.398307
317 3 0.896654 0.851731 0.898307
318 3 0.103346 0.148269 0.101693
319 3 0.353346 0.101731 0.601693
320 3 0.146654 0.398269 0.398307
321 3 0.282211 0.354735 0.672557
322 3 0.717801 0.645264 0.327437
323 3 0.967797 0.604736 0.827439
324 3 0.532199 0.895264 0.172563
325 3 0.282206 0.854736 0.672559
326 3 0.717801 0.145264 0.327437
327 3 0.967798 0.104736 0.827439
328 3 0.532199 0.395264 0.172563
329 3 0.782202 0.354736 0.672561
330 3 0.2178 0.645264 0.327437
331 3 0.4678 0.604736 0.827437
332 3 0.0321991 0.895264 0.172563
333 3 0.782198 0.854736 0.672564
334 3 0.217799 0.145264 0.327438
335 3 0.467802 0.104736 0.827436
336 3 0.0321996 0.395264 0.172563
337 3 0.325722 0.40173 0.645314
338 3 0.674278 0.598269 0.354686
339 3 0.924278 0.651731 0.854686
340 3 0.575722 0.848269 0.145314
341 3 0.325722 0.901731 0.645314
342 3 0.674278 0.0982694 0.354686
343 3 0.924278 0.151731 0.854686
344 3 0.575722 0.348269 0.145314
345 3 0.825722 0.401731 0.645314
346 3 0.174278 0.598269 0.354686
347 3 0.424278 0.651731 0.854686
348 3 0.075722 0.848269 0.145314
349 3 0.825722 0.901731 0.645314
350 3 0.174278 0.0982694 0.354686
351 3 0.424278 0.151731 0.854686
352 3 0.075722 0.348269 0.145314
353 3 0.240805 0.369865 0.830468
354 3 0.759199 0.630135 0.169551
355 3 0.00919749 0.619864 0.669544
356 3 0.490801 0.880135 0.330449
357 3 0.240804 0.869865 0.83046
358 3 0.759199 0.130135 0.169551
359 3 0.00919766 0.119864 0.669545
360 3 0.490801 0.380135 0.330449
361 3 0.740802 0.369865 0.830454
362 3 0.259198 0.630135 0.16955
363 3 0.509198 0.619865 0.66955
364 3 0.990801 0.880135 0.330449
365 3 0.740801 0.869865 0.830447
366 3 0.259198 0.130135 0.169548
367 3 0.509199 0.119865 0.669553
368 3 0.990801 0.380135 0.33045
369 3 0.2084 0.417164 0.873961
370 3 0.7916 0.582836 0.12604
371 3 0.0416002 0.667164 0.62604
372 3 0.4584 0.832836 0.37396
373 3 0.2084 0.917164 0.87396
374 3 0.7916 0.0828357 0.12604
375 3 0.0416002 0.167164 0.62604
376 3 0.4584 0.332836 0.37396
377 3 0.7084 0.417164 0.87396
378 3 0.2916 0.582836 0.12604
379 3 0.5416 0.667164 0.62604
380 3 0.9584 0.832836 0.37396
381 3 0.7084 0.917164 0.87396
382 3 0.2916 0.0828357 0.12604
383 3 0.5416 0.167164 0.62604
384 3 0.9584 0.332836 0.37396
385 4 0.0104822 0.308569 0.72542
386 4 0.989517 0.691431 0.27458
387 4 0.239518 0.558569 0.77458
388 4 0.260483 0.941431 0.22542
389 4 0.0104824 0.808569 0.72542
390 4 0.989517 0.191431 0.27458
391 4 0.239518 0.058569 0.77458
392 4 0.260483 0.441431 0.22542
393 4 0.510482 0.308569 0.72542
394 4 0.489517 0.691431 0.27458
395 4 0.739517 0.558569 0.77458
396 4 0.760483 0.941431 0.22542
397 4 0.510483 0.808569 0.72542
398 4 0.489518 0.191431 0.27458
399 4 0.739517 0.058569 0.77458
400 4 0.760483 0.441431 0.22542
401 4 0.0677807 0.298486 0.898113
402 4 0.932219 0.701514 0.101886
403 4 0.182219 0.548486 0.601886
404 4 0.317781 0.951514 0.398114
405 4 0.0677807 0.798486 0.898114
406 4 0.932219 0.201514 0.101886
407 4 0.182219 0.0484859 0.601886
408 4 0.317781 0.451514 0.398114
409 4 0.567781 0.298486 0.898114
410 4 0.432219 0.701514 0.101886
411 4 0.682219 0.548486 0.601886
412 4 0.817781 0.951514 0.398114
413 4 0.567781 0.798486 0.898114
414 4 0.432219 0.201514 0.101886
415 4 0.682219 0.0484859 0.601886
416 4 0.817781 0.451514 0.398114
417 4 0.184314 0.214649 0.497208
418 4 0.815685 0.785352 0.502792
419 4 0.0656854 0.464648 0.00279207
420 4 0.434315 0.0353517 0.997208
421 4 0.184315 0.714648 0.497208
422 4 0.815685 0.285352 0.502792
423 4 0.0656854 0.964648 0.00279209
424 4 0.434315 0.535352 0.997208
425 4 0.684315 0.214648 0.497208
426 4 0.315685 0.785352 0.502792
427 4 0.565685 0.464648 0.0027921
428 4 0.934315 0.0353517 0.997208
429 4 0.684315 0.714648 0.497208
430 4 0.315685 0.285352 0.502792
431 4 0.565685 0.964648 0.00279215
432 4 0.934315 0.535352 0.997208
433 4 0.0885961 0.276117 0.47734
434 4 0.911404 0.723883 0.52266
435 4 0.161404 0.526117 0.0226603
436 4 0.338596 0.973883 0.97734
437 4 0.0885961 0.776117 0.47734
438 4 0.911404 0.223883 0.52266
439 4 0.161404 0.026117 0.0226603
440 4 0.338596 0.473883 0.97734
441 4 0.588596 0.276117 0.47734
442 4 0.411404 0.723883 0.52266
443 4 0.661404 0.526117 0.0226602
444 4 0.838596 0.973883 0.97734
445 4 0.588596 0.776117 0.47734
446 4 0.411404 0.223883 0.52266
447 4 0.661404 0.026117 0.0226602
448 4 0.838596 0.473883 0.97734
449 4 0.19369 0.163914 0.727233
450 4 0.80631 0.836086 0.272767
451 4 0.0563098 0.413914 0.772768
452 4 0.44369 0.0860857 0.227232
453 4 0.19369 0.663914 0.727233
454 4 0.80631 0.336086 0.272767
455 4 0.0563098 0.913914 0.772768
456 4 0.44369 0.586086 0.227232
457 4 0.69369 0.163914 0.727233
458 4 0.30631 0.836086 0.272767
459 4 0.55631 0.413914 0.772767
460 4 0.94369 0.0860857 0.227233
461 4 0.69369 0.663914 0.727232
462 4 0.30631 0.336086 0.272767
463 4 0.55631 0.913914 0.772768
464 4 0.94369 0.586086 0.227233
465 4 0.205183 0.19059 0.891773
466 4 0.794817 0.80941 0.108226
467 4 0.044817 0.44059 0.608226
468 4 0.455183 0.0594099 0.391774
469 4 0.205183 0.69059 0.891774
470 4 0.794817 0.30941 0.108226
471 4 0.044817 0.94059 0.608226
472 4 0.455183 0.55941 0.391774
473 4 0.705183 0.19059 0.891773
474 4 0.294817 0.80941 0.108226
475 4 0.544817 0.44059 0.608226
476 4 0.955183 0.0594099 0.391774
477 4 0.705183 0.69059 0.891774
478 4 0.294817 0.30941 0.108226
479 4 0.544817 0.94059 0.608226
480 4 0.955183 0.55941 0.391774
481 4 0.428767 0.387135 0.854318
482 4 0.571233 0.612865 0.145683
483 4 0.821233 0.637135 0.645683
484 4 0.678767 0.862865 0.354317
485 4 0.428767 0.887135 0.854317
486 4 0.571233 0.112865 0.145683
487 4 0.821233 0.137135 0.645683
488 4 0.678767 0.362865 0.354317
489 4 0.928767 0.387135 0.854318
490 4 0.0712332 0.612865 0.145683
491 4 0.321233 0.637135 0.645683
492 4 0.178767 0.862865 0.354317
493 4 0.928767 0.887135 0.854317
494 4 0.0712332 0.112865 0.145683
495 4 0.321233 0.137135 0.645683
496 4 0.178767 0.362865 0.354317
497 4 0.398483 0.354865 0.99505
498 4 0.601517 0.645135 0.00494964
499 4 0.851517 0.604865 0.504949
500 4 0.648483 0.895135 0.495051
501 4 0.398483 0.854865 0.99505
502 4 0.601517 0.145135 0.00494957
503 4 0.851517 0.104865 0.504949
504 4 0.648483 0.395135 0.49505
505 4 0.898483 0.354865 0.99505
506 4 0.101517 0.645135 0.00494983
507 4 0.351517 0.604865 0.50495
508 4 0.148483 0.895135 0.49505
509 4 0.898483 0.854865 0.99505
510 4 0.101517 0.145135 0.00494988
511 4 0.351517 0.104865 0.50495
512 4 0.148483 0.395135 0.49505
513 4 0.298079 0.449145 0.645421
514 4 0.701922 0.550855 0.354578
515 4 0.951922 0.699145 0.854578
516 4 0.548078 0.800855 0.145422
517 4 0.298079 0.949145 0.645422
518 4 0.701922 0.0508552 0.354578
519 4 0.951922 0.199145 0.854578
520 4 0.548078 0.300855 0.145422
521 4 0.798078 0.449145 0.645422
522 4 0.201922 0.550855 0.354578
523 4 0.451922 0.699145 0.854578
524 4 0.0480784 0.800855 0.145422
525 4 0.798078 0.949145 0.645422
526 4 0.201922 0.0508552 0.354578
527 4 0.451922 0.199145 0.854578
528 4 0.0480784 0.300855 0.145422
529 4 0.386643 0.392898 0.613585
530 4 0.613356 0.607102 0.386416
531 4 0.863356 0.642898 0.886416
532 4 0.636644 0.857102 0.113584
533 4 0.386644 0.892898 0.613584
534 4 0.613356 0.107102 0.386416
535 4 0.863356 0.142898 0.886416
536 4 0.636644 0.357102 0.113584
537 4 0.886644 0.392898 0.613584
538 4 0.113356 0.607102 0.386416
539 4 0.363356 0.642898 0.886416
540 4 0.136644 0.857102 0.113584
541 4 0.886644 0.892898 0.613584
542 4 0.113356 0.107102 0.386416
543 4 0.363356 0.142898 0.886416
544 4 0.136644 0.357102 0.113584
545 4 0.197745 0.461716 0.823259
546 4 0.802255 0.538284 0.176742
547 4 0.052255 0.711716 0.676742
548 4 0.447745 0.788284 0.323258
549 4 0.197745 0.961716 0.823258
550 4 0.802255 0.0382842 0.176742
551 4 0.052255 0.211716 0.676742
552 4 0.447745 0.288284 0.323258
553 4 0.697745 0.461716 0.823258
554 4 0.302255 0.538284 0.176742
555 4 0.552255 0.711716 0.676742
556 4 0.947745 0.788284 0.323258
557 4 0.697745 0.961716 0.823258
558 4 0.302255 0.0382842 0.176742
559 4 0.552255 0.211716 0.676742
560 4 0.947745 0.288284 0.323258
561 4 0.198091 0.413811 0.965506
562 4 0.801909 0.586189 0.0344934
563 4 0.0519092 0.663811 0.534494
564 4 0.448091 0.836189 0.465507
565 4 0.198091 0.913811 0.965506
566 4 0.801909 0.0861893 0.0344934
567 4 0.0519092 0.163811 0.534494
568 4 0.448091 0.336189 0.465507
569 4 0.698091 0.413811 0.965506
570 4 0.301909 0.586189 0.0344934
571 4 0.551909 0.663811 0.534493
572 4 0.948091 0.836189 0.465507
573 4 0.698091 0.913811 0.965507
574 4 0.301909 0.0861893 0.0344935
575 4 0.551909 0.163811 0.534493
576 4 0.948091 0.336189 0.465507
ITEM: TIMESTEP
1000
ITEM: NUMBER OF ATOMS
576
ITEM: BOX BOUNDS xy xz yz pp pp pp
-5.3361204867351297e+00 1.8980245537285189e+01 2.1655906734945762e-01
-1.2616801165651914e+00 2.6588958802571096e+01 -4.2764344897993087e+00
-5.2902600021722002e-01 1.3342352682917188e+01 2.1527917430583793e-01
ITEM: ATOMS id type xs ys zs
1 1 0.238585 0.323663 0.871701
3 1 0.028728 0.571367 0.63934
4 1 0.491755 0.931328 0.381285
5 1 0.257767 0.823178 0.878986
6 1 0.737524 0.186247 0.112083
8 1 0.490471 0.417312 0.373342
9 1 0.735761 0.313179 0.878523
10 1 0.270244 0.682764 0.138656
11 1 0.505277 0.571045 0.616443
13 1 0.739948 0.822744 0.866849
14 1 0.248711 0.168776 0.125506
15 1 0.510769 0.0741801 0.622881
16 1 0.00252638 0.428216 0.385278
17 1 0.181091 0.313619 0.701636
19 1 0.0999444 0.545488 0.794937
20 1 0.418414 0.94646 0.224318
21 1 0.19166 0.805067 0.726376
23 1 0.0548881 0.0656262 0.803241
24 1 0.411825 0.44616 0.225945
25 1 0.670866 0.312835 0.711771
26 1 0.328259 0.691278 0.310384
27 1 0.585964 0.550956 0.774752
29 1 0.672979 0.811637 0.704952
30 1 0.30611 0.176366 0.295387
31 1 0.567976 0.0594545 0.788191
33 1 0.292455 0.262821 0.723654
34 1 0.736899 0.749455 0.283204
36 1 0.527503 0.99319 0.218562
37 1 0.301317 0.769555 0.72214
38 1 0.713647 0.236301 0.293852
40 1 0.517813 0.489396 0.223958
42 1 0.218206 0.739711 0.286696
43 1 0.479652 0.513844 0.78528
44 1 0.0321669 0.982142 0.205547
46 1 0.195216 0.226844 0.274689
47 1 0.461635 0.0105081 0.770861
48 1 0.0533444 0.493398 0.243186
49 1 0.305901 0.292345 0.87974
50 1 0.698207 0.717728 0.122445
52 1 0.559681 0.961475 0.376573
53 1 0.331196 0.798245 0.879298
54 1 0.674658 0.216737 0.120645
56 1 0.555699 0.449401 0.376223
58 1 0.201155 0.714616 0.123242
59 1 0.438606 0.546289 0.627174
60 1 0.0552871 0.956422 0.368956
62 1 0.179657 0.201911 0.113196
63 1 0.442511 0.0421925 0.611893
64 1 0.0692892 0.457394 0.396448
65 1 0.335631 0.311975 0.730424
66 1 0.688752 0.701879 0.283116
68 1 0.566231 0.943717 0.217226
69 1 0.334439 0.822113 0.727817
70 1 0.663232 0.188712 0.273608
72 1 0.560656 0.442881 0.212084
74 1 0.171596 0.69081 0.268762
75 1 0.440383 0.564147 0.784133
76 1 0.085813 0.938904 0.225847
78 1 0.149021 0.179308 0.254143
79 1 0.416455 0.058747 0.761822
80 1 0.0962077 0.444734 0.243441
81 1 0.22409 0.360546 0.718121
83 1 0.0601719 0.592771 0.804054
84 1 0.461323 0.898286 0.22065
85 1 0.222925 0.856644 0.723513
87 1 0.011711 0.114793 0.773427
88 1 0.452157 0.398706 0.211429
89 1 0.716539 0.360359 0.735943
90 1 0.280183 0.645058 0.29212
91 1 0.552336 0.601892 0.775579
93 1 0.713674 0.860237 0.711036
94 1 0.261468 0.129117 0.276803
95 1 0.525271 0.108386 0.775341
97 2 0.230851 0.330072 0.945164
99 2 0.0248992 0.588995 0.569907
100 2 0.493024 0.923645 0.456182
101 2 0.254337 0.827416 0.953813
102 2 0.736413 0.1834 0.0395919
103 2 0.00322538 0.0649704 0.562172
104 2 0.499363 0.403894 0.447178
105 2 0.735939 0.310949 0.955719
106 2 0.274597 0.676173 0.0642864
107 2 0.507023 0.576137 0.544877
109 2 0.738739 0.831918 0.940758
110 2 0.259487 0.162177 0.0555407
111 2 0.523162 0.0797917 0.554996
113 2 0.126126 0.322012 0.654411
115 2 0.157103 0.547069 0.843304
116 2 0.364038 0.941676 0.180895
117 2 0.134061 0.804715 0.68446
119 2 0.111139 0.0722214 0.847037
120 2 0.352342 0.442503 0.187877
121 2 0.614694 0.318305 0.678822
122 2 0.380453 0.684227 0.369219
123 2 0.643403 0.551685 0.814017
125 2 0.61753 0.810138 0.66107
126 2 0.362166 0.168506 0.338918
127 2 0.622273 0.0641984 0.84077
129 2 0.312207 0.234024 0.691087
130 2 0.724585 0.776856 0.331095
132 2 0.547508 0.0212174 0.182914
133 2 0.325127 0.74503 0.67988
134 2 0.702807 0.259747 0.34963
136 2 0.530246 0.520829 0.185526
138 2 0.194699 0.766049 0.326787
139 2 0.459954 0.486829 0.830513
140 2 0.0491083 0.00919042 0.161528
142 2 0.173577 0.255511 0.31128
143 2 0.439476 0.983478 0.809237
144 2 0.0715805 0.521322 0.198989
145 2 0.330147 0.283257 0.954054
146 2 0.660895 0.726427 0.0462235
148 2 0.590436 0.972732 0.447902
149 2 0.360523 0.791391 0.958586
150 2 0.64135 0.228113 0.0440749
152 2 0.585929 0.458916 0.449441
154 2 0.179135 0.728804 0.0501977
155 2 0.402566 0.536814 0.55605
156 2 0.0739989 0.971978 0.441493
158 2 0.160075 0.214584 0.0339721
159 2 0.416925 0.0347125 0.535562
160 2 0.0964236 0.460588 0.473278
161 2 0.381879 0.309667 0.699097
162 2 0.649868 0.707269 0.323547
164 2 0.606998 0.945796 0.17574
165 2 0.372758 0.825886 0.681648
166 2 0.618608 0.192019 0.304645
168 2 0.597389 0.451192 0.170957
170 2 0.125573 0.696416 0.293356
171 2 0.4027 0.563731 0.829124
172 2 0.129472 0.947419 0.196517
174 2 0.102574 0.180607 0.283111
175 2 0.372181 0.0548215 0.79143
176 2 0.139016 0.447526 0.208318
177 2 0.189694 0.389585 0.67285
179 2 0.0989711 0.619571 0.845504
180 2 0.42412 0.87005 0.179556
181 2 0.181208 0.882245 0.682866
183 2 0.0419334 0.147853 0.80569
184 2 0.415571 0.372489 0.166128
185 2 0.684709 0.392626 0.705527
186 2 0.305288 0.612759 0.330278
187 2 0.589523 0.629019 0.807761
189 2 0.679242 0.888326 0.667874
190 2 0.285636 0.0958902 0.319138
191 2 0.557464 0.137319 0.815361
193 3 0.176847 0.298308 0.805246
195 3 0.0920915 0.538166 0.687284
196 3 0.424366 0.958018 0.329132
197 3 0.196809 0.790166 0.831543
199 3 0.0579051 0.0433618 0.709111
200 3 0.421278 0.449099 0.333403
201 3 0.673265 0.289094 0.809602
202 3 0.33389 0.704981 0.207897
203 3 0.574479 0.539717 0.669601
205 3 0.675431 0.796395 0.808709
206 3 0.308898 0.195188 0.190814
207 3 0.576445 0.0485802 0.687714
209 3 0.105984 0.305944 0.821552
211 3 0.158092 0.551634 0.660213
212 3 0.358992 0.940212 0.352177
213 3 0.128587 0.802909 0.853505
215 3 0.128972 0.0530251 0.69501
216 3 0.356726 0.431357 0.357784
217 3 0.606364 0.298262 0.834841
218 3 0.40567 0.690391 0.199679
219 3 0.63905 0.551671 0.639564
221 3 0.607153 0.811421 0.829518
222 3 0.380404 0.179624 0.182599
223 3 0.645609 0.067199 0.676558
225 3 0.217339 0.275104 0.662016
227 3 0.071334 0.504099 0.841599
228 3 0.446857 0.987531 0.174916
229 3 0.222946 0.764516 0.679242
231 3 0.0200271 0.0341226 0.860187
232 3 0.435734 0.487725 0.179163
233 3 0.703765 0.284707 0.647064
234 3 0.289696 0.726757 0.352641
235 3 0.5591 0.510838 0.827833
237 3 0.706772 0.773442 0.660636
238 3 0.268493 0.212578 0.340101
239 3 0.536384 0.0192399 0.830768
241 3 0.172824 0.247529 0.571429
243 3 0.0898912 0.511553 0.948336
244 3 0.42272 0.980505 0.0654763
245 3 0.197274 0.771592 0.570318
247 3 0.0632622 0.995233 0.927297
248 3 0.411721 0.485998 0.0691384
249 3 0.658283 0.248919 0.578345
250 3 0.335611 0.763532 0.41983
251 3 0.584104 0.521125 0.934637
253 3 0.670995 0.746552 0.564894
254 3 0.314856 0.249489 0.405467
255 3 0.558919 0.00962757 0.941566
257 3 0.300364 0.244399 0.824832
258 3 0.711633 0.76816 0.182366
260 3 0.543258 0.008975 0.322688
261 3 0.327652 0.749565 0.824022
262 3 0.693631 0.261187 0.197486
264 3 0.540751 0.499022 0.329876
266 3 0.21451 0.758858 0.189128
267 3 0.449127 0.495936 0.685018
268 3 0.0383626 0.00337878 0.303315
270 3 0.188018 0.246472 0.175815
271 3 0.452305 0.993431 0.668808
272 3 0.0636471 0.510523 0.343811
273 3 0.239656 0.213169 0.831719
275 3 0.0147959 0.455841 0.653707
276 3 0.48631 0.039135 0.341879
277 3 0.279576 0.714073 0.850887
280 3 0.490814 0.534872 0.353628
281 3 0.731114 0.208847 0.790148
282 3 0.271859 0.794865 0.186275
283 3 0.497936 0.463039 0.655093
286 3 0.245807 0.279706 0.169565
287 3 0.511814 0.961494 0.659041
288 3 0.00358841 0.540485 0.354059
289 3 0.356543 0.318045 0.834604
290 3 0.654552 0.695804 0.179056
292 3 0.604897 0.937782 0.324354
293 3 0.368226 0.831282 0.83081
294 3 0.627041 0.190338 0.164856
296 3 0.603205 0.430255 0.317656
298 3 0.145664 0.691921 0.161565
299 3 0.398808 0.578093 0.678814
300 3 0.113253 0.934739 0.333614
302 3 0.125724 0.176194 0.148647
303 3 0.392551 0.0666489 0.654102
304 3 0.119767 0.435511 0.348874
305 3 0.406625 0.351705 0.902078
306 3 0.606616 0.656399 0.129467
308 3 0.640332 0.889657 0.36354
309 3 0.425623 0.859193 0.902732
310 3 0.582277 0.151918 0.109491
312 3 0.632113 0.379892 0.344394
314 3 0.111895 0.647716 0.115035
315 3 0.350219 0.613019 0.608986
316 3 0.157369 0.895577 0.399667
318 3 0.0947264 0.1329 0.0918701
319 3 0.339938 0.102022 0.594309
320 3 0.161302 0.391135 0.394087
321 3 0.288899 0.354362 0.681279
322 3 0.738211 0.662726 0.331804
323 3 0.00194979 0.58681 0.855694
324 3 0.515479 0.904678 0.16903
325 3 0.27554 0.856635 0.668978
326 3 0.708775 0.146204 0.309855
328 3 0.505919 0.408554 0.156931
330 3 0.215785 0.649636 0.325974
331 3 0.499565 0.597026 0.834583
332 3 0.0465289 0.893846 0.176577
334 3 0.196738 0.137035 0.31038
335 3 0.460481 0.0999743 0.812821
336 3 0.0442006 0.407652 0.183455
337 3 0.327634 0.400999 0.68194
338 3 0.704477 0.616468 0.357111
340 3 0.551276 0.857391 0.15527
341 3 0.301456 0.907899 0.664314
342 3 0.665529 0.101712 0.316132
344 3 0.534182 0.359732 0.133994
346 3 0.173212 0.603222 0.311476
347 3 0.478411 0.647095 0.856657
348 3 0.08864 0.850797 0.154683
350 3 0.159067 0.0904303 0.317143
351 3 0.416492 0.146394 0.805465
352 3 0.0727003 0.361134 0.154905
353 3 0.242975 0.372956 0.829517
355 3 0.0316896 0.612515 0.703407
356 3 0.492048 0.88521 0.328683
357 3 0.252133 0.87153 0.829996
358 3 0.731677 0.135943 0.15073
360 3 0.48806 0.375177 0.308146
361 3 0.738258 0.365471 0.846017
362 3 0.263686 0.633762 0.184737
363 3 0.514618 0.618614 0.666509
364 3 0.00705334 0.872985 0.323194
366 3 0.241479 0.119762 0.167648
367 3 0.502747 0.120589 0.669131
368 3 0.00942001 0.382194 0.332968
369 3 0.194482 0.410761 0.851208
371 3 0.0747689 0.653868 0.680832
372 3 0.459761 0.839906 0.361107
373 3 0.206691 0.908867 0.863475
375 3 0.0342743 0.152924 0.622078
376 3 0.448553 0.332808 0.336451
377 3 0.689823 0.398834 0.880401
378 3 0.307352 0.591713 0.162566
379 3 0.553448 0.656632 0.630063
381 3 0.708049 0.915748 0.848999
382 3 0.285322 0.0793642 0.143133
383 3 0.540561 0.163869 0.640012
385 4 0.0497751 0.296967 0.750084
387 4 0.214952 0.560641 0.728911
388 4 0.298342 0.94307 0.285492
389 4 0.0766491 0.825457 0.791584
391 4 0.186528 0.0552385 0.768122
392 4 0.297516 0.434687 0.291365
393 4 0.545826 0.297615 0.769024
394 4 0.460616 0.684798 0.27516
395 4 0.691347 0.571684 0.702301
397 4 0.547862 0.809023 0.760624
398 4 0.434026 0.18122 0.261698
399 4 0.70055 0.0664434 0.751676
401 4 0.0983644 0.320243 0.903437
403 4 0.164722 0.54679 0.57438
404 4 0.361521 0.931805 0.440558
405 4 0.127326 0.8011 0.941378
407 4 0.132037 0.0526559 0.608066
408 4 0.358035 0.416651 0.444401
409 4 0.605939 0.307873 0.921721
410 4 0.41675 0.687299 0.116552
411 4 0.642339 0.537802 0.555696
413 4 0.60905 0.820459 0.916539
414 4 0.389443 0.170318 0.100799
415 4 0.654203 0.0795228 0.593999
417 4 0.203453 0.213466 0.5402
419 4 0.0468465 0.501573 0.998226
420 4 0.444558 0.00976475 0.0111545