LAMMPS data file via write_data, version 15 Apr 2020, timestep = 80000

576 atoms
4 atom types

-1.8653782471341351e-01 1.7890538297712965e+01 xlo xhi
-2.5632757748451560e+00 2.7675275286545705e+01 ylo yhi
-2.8221319344634122e-01 1.3095539876146386e+01 zlo zhi
-2.3826921019985132e+00 -3.8187021928869980e-01 8.7177029655170113e-01 xy xz yz

Masses

1 12.0107
2 1.00794
3 14.0067
4 15.9994

Atoms # full

3 1 1 8.4247688230170911e-02 1.5524045138574081e+01 1.7010167858911764e+01 7.8680773490102078e+00 -1 0 0
16 1 1 7.3879785343655080e-02 -3.4328153386691762e-01 9.3953140736636840e+00 3.5818056278668160e+00 1 0 0
19 1 1 7.7223232641173839e-02 -1.2406469729721339e+00 1.5972933441724493e+01 9.4462266201308047e+00 0 0 0
23 1 1 9.3628126884168036e-02 -3.1858180738223113e-01 1.8834031519593353e-01 1.0768899564573772e+01 0 0 0
48 1 1 9.4881592136223880e-02 8.2002603084833370e-02 1.2069648516675693e+01 2.0060579817170621e+00 0 0 0
60 1 1 1.0224983405230620e-01 -7.0610246227754447e-01 2.6527997677399679e+01 3.8081813595897041e+00 0 0 0
64 1 1 9.0356388038422067e-02 9.0255655138819235e-01 1.0342495153507134e+01 3.4250042348857339e+00 0 0 0
76 1 1 7.6665594220617445e-02 -1.7050158998076463e+00 2.5008741122072436e+01 2.3009764838402655e+00 0 0 0
78 1 1 9.9510509081415677e-02 1.9232657889593172e+00 2.6973707011885519e+00 2.7480312520910610e+00 0 0 0
80 1 1 8.0211151604251088e-02 8.5539635704589512e-01 1.0932606740592673e+01 1.1740226949387766e+00 0 0 0
83 1 1 8.0392628184538989e-02 1.5387977241632617e+01 1.5931926912107219e+01 1.0009258900184527e+01 -1 0 0
99 1 2 2.5735022233215316e-01 1.5380447469448050e+01 1.7998098804703897e+01 7.4090604661367356e+00 -1 0 0
119 1 2 2.4714160155280884e-01 4.8584318103354807e-01 -6.9415084731871524e-02 1.1565921225310948e+01 0 0 0
144 1 2 2.3868390068093173e-01 3.1280536726130592e-01 1.3096415689371465e+01 1.7556457006617174e+00 0 0 0
156 1 2 2.4565697377718893e-01 2.2635484247443316e-01 2.7078843931503876e+01 4.1106893146003554e+00 0 0 0
160 1 2 2.4227923328923290e-01 1.4849456369972902e+00 1.0138243693569796e+01 4.3562803476317580e+00 0 0 0
172 1 2 2.4686353308247078e-01 -1.3061839237962998e+00 2.4718557970163900e+01 1.3159086484556879e+00 0 0 0
174 1 2 2.4183667201034414e-01 9.3121106618414651e-01 2.1852697326268364e+00 2.5572903235905415e+00 0 0 0
176 1 2 2.4905043439696811e-01 1.5971992973937095e+00 1.1405716228514132e+01 4.4191113637844692e-01 0 0 0
183 1 2 2.5847844044755347e-01 9.0300039227003026e-02 2.3613261393676002e+00 1.1105269711506747e+01 0 0 0
199 1 3 -2.1077248675605120e-01 7.2008998331508645e-02 -4.4417335934875357e-01 9.4378405416003233e+00 0 0 0
209 1 3 4.2487815719383604e-01 5.6606380449128286e+00 1.0903113419324773e+01 8.3749770944551152e+00 0 0 0
215 1 3 4.6997680885652621e-01 1.5781945933920707e+00 -4.4779698399895107e-01 9.2061877961650609e+00 0 0 0
227 1 3 -2.1129146415743050e-01 -8.2639964767206464e-01 1.4541635196625453e+01 9.0403431242737433e+00 0 0 0
243 1 3 4.0439737355847927e-01 -6.5263822140866989e-01 1.3620471300811154e+01 1.0231330247107035e+01 0 0 0
247 1 3 4.5336055466268815e-01 1.4357386745626727e+01 2.8302426045726705e+01 1.1739363434723366e+01 -1 -1 0
268 1 3 -2.4767855904949865e-01 -1.4902336710601407e+00 2.7410519216643603e+01 2.8121103402822007e+00 0 -1 0
272 1 3 -2.6264616181248984e-01 6.5218438437170645e-01 1.1844645992547813e+01 3.3506379850667218e+00 0 0 0
275 1 3 4.6465216698941558e-01 -5.6549128141604699e-01 1.5371659268930031e+01 6.1987347680796123e+00 0 0 0
300 1 3 -1.8258587593172870e-01 -3.1514275396553393e-01 2.5277758598757462e+01 3.1236771253979048e+00 0 0 0
302 1 3 -1.8915611658945991e-01 2.6097232328802926e+00 3.1412326800213606e+00 1.5190180828695456e+00 0 0 0
304 1 3 -1.8685264056254552e-01 1.6101190693730121e+00 9.9921630504569325e+00 2.1118648248013416e+00 0 0 0
318 1 3 4.2382830708370423e-01 1.6010561883261725e+00 3.5272371400756182e+00 4.1018355450694455e-01 0 0 0
323 1 3 -2.2231053296070541e-01 1.4721567070138223e+01 1.4566106170754399e+01 9.9580754667038143e+00 0 0 0
332 1 3 -1.9275858024640302e-01 1.5571718010033580e+01 2.3882015974227500e+01 2.9141821305767466e+00 -1 0 0
336 1 3 -2.2861877949393533e-01 -1.9784262990253998e-01 1.0208753326001890e+01 3.3337178798678158e-01 0 0 0
348 1 3 4.3860328824590539e-01 -1.6993045674636043e+00 2.2596583871774822e+01 2.9880632426324159e+00 0 0 0
350 1 3 4.2745417507434835e-01 3.0590269837226618e+00 3.4474476897691986e-01 2.7831201243108601e+00 0 0 0
352 1 3 4.3049185357112518e-01 1.0197181187022575e-01 1.0036167315957663e+01 1.2823537515214838e+01 0 0 -1
355 1 3 -2.1762037698486333e-01 1.4662052912151553e+01 1.6949294057211162e+01 9.1571376830925857e+00 -1 0 0
364 1 3 -2.4586563656451027e-01 -1.7171203152598544e+00 2.4793633026714819e+01 5.1568490636011726e+00 1 0 0
385 1 4 -2.7709266789707754e-01 4.9932572842306424e+00 1.1466983474239925e+01 7.4104977406274237e+00 0 0 0
389 1 4 -2.6649412738108463e-01 -1.6026084582429194e+00 2.1683714913689624e+01 1.1652682296529559e+01 0 0 0
401 1 4 -3.4472940860209417e-01 6.8051983918311629e+00 1.1415140590226951e+01 8.7334817443444130e+00 0 0 0
407 1 4 -2.6167459196515702e-01 2.0916361700753296e+00 -1.1816446317451978e+00 8.2640937826232168e+00 0 0 0
419 1 4 -2.2779148542373415e-01 -2.0662386978227121e-01 1.2413243154447848e+01 1.0053620369431453e+01 0 0 0
433 1 4 -2.1614883614150249e-01 2.3284460832714347e+00 9.2127187990362032e+00 9.0480030492906280e+00 0 0 0
435 1 4 -3.0794580698144108e-01 -6.0604964812246476e-01 1.4195999964559395e+01 1.1399354676956786e+01 0 0 -1
439 1 4 -3.0812676200663724e-01 1.3475614165209665e+01 2.7362754643189483e+01 1.1488788764209904e+01 -1 -1 -1
451 1 4 -2.9070042678848662e-01 5.6904557665654654e-01 1.4876972821652771e+01 6.5608399989189223e+00 0 0 0
467 1 4 -3.3201480762667612e-01 -6.5541384455295326e-01 1.6244235434320185e+01 5.2430779401356862e+00 0 0 0
490 1 4 -2.3464322831139367e-01 1.0166164568016154e+00 1.7258339009440022e+01 -9.9269277369236825e-02 0 0 0
510 1 4 -2.5897307545665532e-01 6.9877272330300322e-01 4.3410198326915532e+00 7.4626097366475319e-01 0 0 0
524 1 4 -2.3958856971652953e-01 1.5788118875984258e+01 2.1451427242778472e+01 2.9411318534491113e+00 -1 0 0
526 1 4 -2.7514280323572443e-01 2.2260087850710617e+00 -6.1369529107909493e-02 1.8653791729323870e+00 0 0 0
528 1 4 -2.1005077130545652e-01 1.1529439770202161e+00 1.0353459781497280e+01 1.2119947086993427e+01 0 0 -1
538 1 4 -2.3652774056328119e-01 -1.1085051349143582e+00 1.7226233332167531e+01 2.1587635083632799e+00 0 0 0
540 1 4 -2.7185623411980064e-01 -4.3833213431295104e-01 2.2627736264103230e+01 3.2815913365554295e+00 0 0 0
542 1 4 -2.4332646041799505e-01 4.1635575784976471e+00 -3.1909704347047407e-01 3.0089246536662917e+00 0 0 0
544 1 4 -2.5178060344326447e-01 -4.9954630888857443e-01 8.9507117068740385e+00 1.2537086193453387e+01 0 0 -1
551 1 4 -2.5567233085901581e-01 1.5010326669422502e+00 3.4181347092807970e+00 9.5539577846180705e+00 0 0 0
12 1 1 1.0342255554539748e-01 -1.6015870346535688e+00 2.6266762769137110e+01 5.1064163382591827e+00 1 0 0
108 1 2 2.4418053491039576e-01 -1.1437981193830256e+00 2.6696454610950575e+01 6.0034078625542158e+00 1 0 0
112 1 2 2.4728809828560275e-01 -1.8905165874917629e-01 8.8196407773705143e+00 4.4814846216999733e+00 1 0 0
339 1 3 4.0083718215457970e-01 1.3257590155239241e+01 1.4641966199412650e+01 1.0391213859705822e+01 0 0 0
515 1 4 -1.7995515121768468e-01 1.3017356364287041e+01 1.4266425832138673e+01 1.1623930152418620e+01 0 0 0
572 1 4 -3.0537233002516118e-01 -7.6369598380746151e-01 2.3673406995011707e+01 7.0466262257377439e+00 1 0 0
35 1 1 9.8704532430558281e-02 1.6238359575938194e+01 1.3993829578420979e+01 8.0574472262008250e+00 0 0 0
51 1 1 8.7173206244467186e-02 1.5123959055297938e+01 1.5795719883631193e+01 6.9445273987409299e+00 0 0 0
380 1 3 4.5875794453448193e-01 -1.7975134468503500e+00 2.4230146677541921e+01 6.5450878219882522e+00 1 0 0
1 1 1 9.6801059171393533e-02 5.9856188486539210e+00 9.0869826004520267e+00 1.0100279822120442e+01 0 0 0
4 1 1 9.9415176531014129e-02 5.9477721150334526e+00 2.6333773913763856e+01 5.0708934768071634e+00 0 0 0
5 1 1 8.2413353594769562e-02 1.4358926022927028e+00 2.2783109305942155e+01 1.2108407827889121e+01 0 0 0
8 1 1 5.2604705789602128e-02 8.6162686329687475e+00 8.8007534178397346e+00 2.4413579940053944e+00 0 0 0
10 1 1 7.5767580535761922e-02 4.1706702251791627e+00 1.7203707093379769e+01 2.8123470328972275e+00 0 0 0
14 1 1 7.7281608835591473e-02 4.6580181422656199e+00 4.2017771544944171e+00 2.7711514309327963e+00 0 0 0
15 1 1 9.4978274561670809e-02 8.2853687493269241e+00 4.8755383662095797e-01 1.0319262498370943e+01 0 0 0
17 1 1 6.4022033991176064e-02 5.1049501488212057e+00 8.3978121560068253e+00 7.9230844441639556e+00 0 0 0
20 1 1 1.0009842397491403e-01 5.0495805963214506e+00 2.4849865558935385e+01 3.3682167354376946e+00 0 0 0
21 1 1 9.1110451799472511e-02 5.4299693856463571e-01 2.2000946619016553e+01 1.0025022052689195e+01 0 0 0
24 1 1 7.1766572443486124e-02 8.0314359353120182e+00 1.0764071527234082e+01 1.2403853926253681e+00 0 0 0
26 1 1 8.6073977156358839e-02 3.0678993495665376e+00 1.7366924652388089e+01 4.8621108686658854e+00 0 0 0
30 1 1 8.8789619257543168e-02 3.7530180919635150e+00 3.4997695297560893e+00 4.8941248069513623e+00 0 0 0
31 1 1 8.1977663340693160e-02 7.2089196296556723e+00 -9.9977538482952344e-01 1.1659696442376536e+01 0 0 0
33 1 1 7.2166010360036073e-02 3.8568081334763744e+00 6.9333061391966293e+00 9.4720874794855909e+00 0 0 0
36 1 1 9.8125773317253792e-02 7.0491834608870629e+00 2.5787746232424798e+01 2.2453659971219571e+00 0 0 0
37 1 1 8.1084422675113052e-02 2.9501841978866556e+00 2.2255940021773846e+01 9.4509947431530215e+00 0 0 0
40 1 1 8.4193062800688348e-02 9.1544463330269288e+00 1.1706093866165922e+01 3.2956538168786205e+00 0 0 0
42 1 1 8.0792914368406368e-02 2.3772174829220609e+00 1.9445152405603604e+01 3.7870715713739438e+00 0 0 0
43 1 1 1.0395846527075289e-01 5.0315489967269373e+00 1.5860144492335341e+01 1.1417774376019349e+01 0 0 0
46 1 1 1.0217964424674536e-01 1.6595245800141825e+00 3.9270401699259612e+00 3.6652906306577897e+00 0 0 0
47 1 1 1.0288176604881993e-01 5.5332252846447787e+00 -1.0926220800268296e+00 9.8508321469588225e+00 0 0 0
49 1 1 9.8019130514726910e-02 5.2568346403443380e+00 8.0748056035914395e+00 1.1081840880199564e+01 0 0 0
52 1 1 1.0157063173232375e-01 7.2231236265207199e+00 2.6917429895043401e+01 4.3315305977043863e+00 0 0 0
53 1 1 8.0162997154187371e-02 2.9399545231064321e+00 2.3018329781440439e+01 1.1711544125799701e+01 0 0 0
58 1 1 8.6997617518379977e-02 3.7842146215388541e+00 1.8530439474831411e+01 2.0832345589100165e+00 0 0 0
59 1 1 9.7382301376205280e-02 5.0264193916464484e+00 1.4681372735543651e+01 9.3674563157648052e+00 0 0 0
62 1 1 8.6855481753132763e-02 3.3315792504165964e+00 4.4426846849138277e+00 1.9931843148507529e+00 0 0 0
63 1 1 1.1274183632437483e-01 7.1624519471131629e+00 4.8444755732039502e-01 9.0663031167033346e+00 0 0 0
65 1 1 1.0271299152964425e-01 5.1419644287193327e+00 6.0839407249696134e+00 9.6992651489949111e+00 0 0 0
68 1 1 8.3825720605695875e-02 7.9908510296182076e+00 2.4990521725184909e+01 3.1800455978608633e+00 0 0 0
69 1 1 7.3204830013273589e-02 2.7086764983330678e+00 2.3763796460895794e+01 9.4390880941534796e+00 0 0 0
72 1 1 8.3015617994268084e-02 1.0520329525403554e+01 1.1271320175368031e+01 2.7167037423258567e+00 0 0 0
74 1 1 8.4725718792424659e-02 1.5921283536688660e+00 1.8636015816771295e+01 2.7024527800945521e+00 0 0 0
75 1 1 1.0860001419899526e-01 4.9450545342758865e+00 1.6923859182865129e+01 1.0250134129835299e+01 0 0 0
79 1 1 7.9292545235141856e-02 5.1718500060821668e+00 4.2895175320099277e-01 1.0274577726314384e+01 0 0 0
81 1 1 1.0092248310802990e-01 6.3945978951119029e+00 7.5919023427480301e+00 8.2028849125536851e+00 0 0 0
84 1 1 9.2582070784191756e-02 6.0629981750529645e+00 2.4039140863407788e+01 4.3015347222848090e+00 0 0 0
85 1 1 9.2596444275563530e-02 3.2584668434968689e-01 2.3571679286450447e+01 1.0069525870741391e+01 0 0 0
88 1 1 7.1651748678728866e-02 9.3816425842429236e+00 1.0336180084353453e+01 6.9913123099631258e-01 0 0 0
90 1 1 8.8105112222822801e-02 2.1169696966093801e+00 1.6547393276272370e+01 3.9040258224286752e+00 0 0 0
94 1 1 9.8509446658090458e-02 4.0512936224158453e+00 2.2666570717424337e+00 3.9567571790164697e+00 0 0 0
95 1 1 7.7714597942909608e-02 6.7533384827374618e+00 4.1164473079998221e-01 1.2192629553059831e+01 0 0 0
97 1 2 2.4600083561658093e-01 6.4123269303399315e+00 9.9715037897061691e+00 1.0588513930017985e+01 0 0 0
100 1 2 2.4370792128282565e-01 5.7297231239101505e+00 2.6957718498443057e+01 5.9723156565733850e+00 0 0 0
101 1 2 2.5820589823844103e-01 1.7101589969618494e+00 2.1835872921324320e+01 -1.7139294711113318e-01 0 0 1
104 1 2 2.3452749764652192e-01 8.3919736402745162e+00 7.7654126397126770e+00 2.6366935210379938e+00 0 0 0
106 1 2 2.5705963959847916e-01 5.0774216253961146e+00 1.6746480304121746e+01 2.4525881203160225e+00 0 0 0
110 1 2 2.4300216721721940e-01 5.5376481784715956e+00 4.7774319950641191e+00 2.2849185622524391e+00 0 0 0
111 1 2 2.5147953310446930e-01 9.2057562590489574e+00 9.7806717196183834e-01 9.9464745180984337e+00 0 0 0
113 1 2 2.4749551896790450e-01 5.1214919520975588e+00 8.8556549805703177e+00 6.9197931151810730e+00 0 0 0
115 1 2 2.4622369123486074e-01 -5.3292300311535556e-01 1.6247391277965654e+01 1.0203118112747504e+01 0 0 0
116 1 2 2.5142654695397593e-01 4.1158567385441511e+00 2.4380110807740433e+01 3.1667698545678840e+00 0 0 0
117 1 2 2.4726003869752594e-01 -3.6138240701295854e-01 2.1504085972791255e+01 9.6902860126288175e+00 0 0 0
120 1 2 2.5311213468648441e-01 7.3702086624828445e+00 1.1026543098019632e+01 4.0140638266089601e-01 0 0 0
122 1 2 2.6659083278588469e-01 3.0937836943257477e+00 1.6880973197976743e+01 5.9099716648589755e+00 0 0 0
126 1 2 2.5074983733825434e-01 4.1232392041555768e+00 3.3018886889750103e+00 5.9100762936970987e+00 0 0 0
129 1 2 2.5101523182219848e-01 2.9453891449416973e+00 6.3903727955627456e+00 9.4906303567263635e+00 0 0 0
132 1 2 2.5699214428726952e-01 7.4445328445098298e+00 2.5983411165293884e+01 1.2153499380404620e+00 0 -1 0
133 1 2 2.6433822430047804e-01 3.7275310720059975e+00 2.1944029806730878e+01 8.7399317249368949e+00 0 0 0
138 1 2 2.2950532912261040e-01 1.9878913091103478e+00 2.0432799726337787e+01 3.9359457654387233e+00 0 0 0
139 1 2 2.6260155037965288e-01 4.2654738456767554e+00 1.5959698742860930e+01 1.2248131724170339e+01 0 0 0
142 1 2 2.5710889886707061e-01 5.7325590029610085e-01 4.0918838140315632e+00 3.7783396785058567e+00 0 0 0
143 1 2 2.6348722776037337e-01 4.6262657823684252e+00 -1.6146596648407667e+00 9.5322196090613289e+00 0 1 0
145 1 2 2.5510943850068180e-01 5.2819913293671812e+00 8.4050373067907991e+00 1.2152445687997645e+01 0 0 0
149 1 2 2.5966481561524357e-01 3.5053615187075229e+00 2.3154599680952995e+01 1.2632809832842010e+01 0 0 0
154 1 2 2.5341313169989682e-01 4.5143745741545409e+00 1.8719831945915015e+01 1.3028105422106793e+00 0 0 0
155 1 2 2.2510703747933236e-01 4.4419191201754948e+00 1.3966661210332617e+01 8.7582820087511486e+00 0 0 0
158 1 2 2.4846591476717167e-01 3.5802471230059680e+00 5.0318616731729522e+00 1.0992772795826204e+00 0 0 0
159 1 2 2.4707561263276473e-01 7.6121406854756470e+00 7.7751137007196380e-01 8.0436053742846561e+00 0 0 0
161 1 2 2.5484583381326753e-01 4.9230548168932424e+00 4.9790735812010096e+00 9.8656627068810892e+00 0 0 0
164 1 2 2.5182419903457309e-01 8.8770460642275957e+00 2.4535080387612261e+01 2.7105623614815308e+00 0 0 0
165 1 2 2.6137280623535891e-01 3.3296347090234582e+00 2.4269899959599947e+01 8.7292946910633340e+00 0 0 0
170 1 2 2.4517730949743732e-01 7.5429924916728908e-01 1.9280436989641540e+01 2.3915531929263572e+00 0 0 0
171 1 2 2.5564039853666587e-01 4.1316609699815006e+00 1.7709707460938148e+01 1.0454069823368989e+01 0 0 0
175 1 2 2.6803862461602213e-01 4.0728322669493124e+00 5.9921114169618761e-01 1.0044213090040660e+01 0 0 0
177 1 2 2.3208986160901682e-01 7.0774510087254852e+00 7.6378038761635398e+00 7.2814705634145511e+00 0 0 0
179 1 2 2.4171857740105007e-01 1.5425141199774732e+01 1.6186480100087635e+01 1.1084909831271258e+01 -1 0 0
180 1 2 2.3275353507980634e-01 5.6517241344810119e+00 2.3114909504497575e+01 4.6272638849448118e+00 0 0 0
181 1 2 2.4308292387360650e-01 -7.1779720987473783e-01 2.3850066965467157e+01 9.7225189643338155e+00 0 0 0
184 1 2 2.4327639759502814e-01 8.9789514477242900e+00 1.1270644219220818e+01 1.2958821306175750e+01 0 0 -1
186 1 2 2.4584447324743466e-01 1.7624424875447677e+00 1.5614114927663415e+01 4.3724340285866239e+00 0 0 0
190 1 2 2.4973456198144667e-01 4.6275833921961373e+00 1.5076976922522602e+00 4.5837654948836626e+00 0 0 0
191 1 2 2.6289919959690305e-01 7.1783496860861336e+00 -3.6639112775341287e-01 -1.1855909124685265e-01 0 0 1
193 1 3 -2.1377771383031902e-01 5.1537024248603389e+00 9.6256681293758213e+00 8.9988112709720376e+00 0 0 0
195 1 3 -2.3428870747635774e-01 -1.1053485166528514e+00 1.6987139177123730e+01 8.2581570194687650e+00 0 0 0
196 1 3 -2.4222477006881712e-01 4.7490267750223270e+00 2.6111671695023094e+01 4.1587409351920233e+00 0 0 0
197 1 3 -2.5338613516893888e-01 7.9058862529717899e-01 2.1615962533838392e+01 1.1440239531603641e+01 0 0 0
200 1 3 -1.8145326061520939e-01 7.3654782654448692e+00 9.5383079848201913e+00 2.0546821777755673e+00 0 0 0
202 1 3 -2.0667570208876049e-01 4.4774957612488908e+00 1.7460930289273755e+01 4.3286914065866720e+00 0 0 0
206 1 3 -2.2532630168311507e-01 4.4764720030964904e+00 4.6477075194217239e+00 4.2301760634311325e+00 0 0 0
211 1 3 4.2641554099187540e-01 -6.2272314810085150e-01 1.8351235447300642e+01 8.6909339073629610e+00 0 0 0
212 1 3 4.6873332986164706e-01 3.3346062924367104e+00 2.6147837521442803e+01 4.7335591988515135e+00 0 0 0
213 1 3 4.4023324376540751e-01 -4.9494890660056723e-01 2.1226931903148898e+01 1.2143738300527794e+01 0 0 0
216 1 3 4.4076538584891756e-01 6.5320311230415085e+00 8.6557202082215348e+00 1.1481648022038746e+00 0 0 0
218 1 3 4.1921186386768505e-01 5.3694182080606598e+00 1.6404655118274803e+01 4.9593189529017145e+00 0 0 0
222 1 3 4.4027457512402968e-01 5.7457906957431462e+00 5.0225505175952323e+00 5.0188021220547530e+00 0 0 0
225 1 3 -1.8899235254848940e-01 3.8664114779712917e+00 7.5807196168571664e+00 8.0468998824236522e+00 0 0 0
228 1 3 -2.2918090630380344e-01 5.6320601893226883e+00 2.5188669164090097e+01 2.0407172387871859e+00 0 0 0
229 1 3 -1.8721639065943449e-01 1.6813773085056130e+00 2.1516969483209181e+01 9.1082001447015841e+00 0 0 0
232 1 3 -1.7712807173491354e-01 8.0830603871605380e+00 1.1932538325683069e+01 2.2149097995736331e+00 0 0 0
234 1 3 -2.0370572045843527e-01 2.4286031794881540e+00 1.8731360289387222e+01 5.1331887163950558e+00 0 0 0
238 1 3 -2.3575305721949597e-01 2.2607298482222937e+00 3.7103090039288880e+00 5.0549871595105635e+00 0 0 0
239 1 3 -1.9299764085010798e-01 3.7283368566257860e+00 2.8405586634144143e+01 1.1049098349404229e+01 0 -1 0
241 1 3 4.1894369045322638e-01 2.6708282974732329e+00 8.5136385098559391e+00 8.0217004675496248e+00 0 0 0
244 1 3 4.6011420460521080e-01 5.5803912137609464e+00 2.4037643119590971e+01 1.0329894997618245e+00 0 0 0
245 1 3 4.1731721546004796e-01 1.3520674059198994e+00 2.1693972678980820e+01 7.6344289468392263e+00 0 0 0
248 1 3 4.0897511718704782e-01 8.0928296561640778e+00 1.3317504219757524e+01 1.5910131647284511e+00 0 0 0
250 1 3 4.4473839319649688e-01 3.1358652493883525e+00 1.9536655889983116e+01 6.2210639810755444e+00 0 0 0
254 1 3 4.4715398300911180e-01 1.9559641757713901e+00 4.8803020638313441e+00 5.9961676616515751e+00 0 0 0
255 1 3 3.9606876494813897e-01 2.6527812289227679e+00 2.7972592968375722e+01 1.2052992361165881e+01 0 -1 0
257 1 3 -2.1533589377641923e-01 3.8180198098034830e+00 7.9305485704079501e+00 1.0626458730399829e+01 0 0 0
260 1 3 -2.5187937407182603e-01 7.0073009669006572e+00 2.7163093040864787e+01 2.8699668624493184e+00 0 -1 0
261 1 3 -2.0864912935437205e-01 3.5561505600679215e+00 2.1920889889853189e+01 1.0869510811405299e+01 0 0 0
266 1 3 -2.0247947953209119e-01 3.7445934484313614e+00 1.9666734539331152e+01 3.1513595994150605e+00 0 0 0
267 1 3 -2.5218009202425140e-01 4.6654850685021092e+00 1.4515680400380557e+01 1.0821897973568905e+01 0 0 0
270 1 3 -2.3317980931674412e-01 2.2079885650559032e+00 5.0837503610543298e+00 2.8146418740928310e+00 0 0 0
271 1 3 -2.4649430291978960e-01 6.4871038034850876e+00 -8.1749535904055515e-01 8.7174402852339199e+00 0 1 0
273 1 3 4.6831699784708825e-01 2.8397839514716638e+00 7.4585546768687223e+00 1.1704127806984324e+01 0 0 0
276 1 3 5.0070678612572350e-01 8.1210944784423535e+00 -2.2937317853784207e+00 2.5742212321313978e+00 0 0 0
277 1 3 4.7027457473337964e-01 3.1339903048690392e+00 2.0564545965561138e+01 1.1363907645212734e+01 0 0 0
280 1 3 4.5195059432504292e-01 7.2691477277953105e+00 1.0513714656790446e+01 4.5225742470593318e+00 0 0 0
282 1 3 4.4937307153513262e-01 3.7060595769075935e+00 2.1026406595263733e+01 2.4600608498095635e+00 0 0 0
286 1 3 4.7313450489673076e-01 2.5268034404153776e+00 6.5157830776867307e+00 3.2346713337274844e+00 0 0 0
287 1 3 4.6241349724538644e-01 7.4249890638728724e+00 -1.9173880332592237e+00 8.4057067441881692e+00 0 1 0
289 1 3 -2.1014882002182636e-01 5.8107935295567517e+00 6.6834528812145741e+00 1.0981993146053565e+01 0 0 0
293 1 3 -1.7443583980208016e-01 3.1506924204382956e+00 2.4257080469431386e+01 1.0863322038960472e+01 0 0 0
298 1 3 -2.2835408008010841e-01 2.4049227006977367e+00 1.8501194308507401e+01 1.4395806456947260e+00 0 0 0
299 1 3 -2.3178052045445172e-01 4.5851261719498648e+00 1.6047865029625743e+01 9.1071288161095900e+00 0 0 0
303 1 3 -2.2570231309272831e-01 6.0317371904545469e+00 1.3229233627663817e+00 9.4556557558232903e+00 0 0 0
305 1 3 4.1126720124288174e-01 5.4501656641903509e+00 5.8918231602851598e+00 1.2216213181719862e+01 0 0 0
309 1 3 4.4216752988584940e-01 4.6151657266884492e+00 2.4655652390825143e+01 1.0891323208497646e+01 0 0 0
310 1 3 4.3113609099389977e-01 1.0171673717448996e+01 4.2934959199612628e+00 3.8677047978641816e+00 0 0 0
314 1 3 4.6292378713483567e-01 2.1961693458508691e+00 1.7363594892395792e+01 4.6179606444814048e-01 0 0 0
315 1 3 4.6983315777325357e-01 3.0999265787340864e+00 1.5984479270955834e+01 8.8314432559202132e+00 0 0 0
316 1 3 4.1892438099554052e-01 8.7545729609764289e-01 2.5481769194964730e+01 2.2023676468981437e+00 0 0 0
319 1 3 4.5279447067769962e-01 5.1951389034524276e+00 1.7896333726334950e+00 8.2999956843332754e+00 0 0 0
320 1 3 4.2721160811676051e-01 3.0726614714139791e+00 1.0428813923630354e+01 2.1682435172635119e+00 0 0 0
321 1 3 -2.1579866562577119e-01 6.0543225327379178e+00 6.1073792275076588e+00 8.5093048832140070e+00 0 0 0
324 1 3 -2.4159112332854088e-01 7.2802620256487565e+00 2.3701480326662637e+01 3.5381453256322173e+00 0 0 0
325 1 3 -2.2329730191577976e-01 1.2531368442334634e+00 2.4196414460698414e+01 9.0896990782995459e+00 0 0 0
328 1 3 -2.2094201977048988e-01 1.0501177219599249e+01 1.1312976575278974e+01 1.2160660635442777e+00 0 0 0
330 1 3 -2.1930092981069060e-01 9.9871363391486656e-01 1.7400421691445175e+01 3.4367374094748069e+00 0 0 0
331 1 3 -2.4081788180682284e-01 6.2460475829062352e+00 1.7719765528989271e+01 1.0081721849361589e+01 0 0 0
334 1 3 -2.3169118063493427e-01 2.7868185814104076e+00 1.6248000531178253e+00 3.5459018446256056e+00 0 0 0
335 1 3 -1.9219718468131411e-01 5.3571770669656784e+00 7.2797071882039077e-01 1.1828881407812315e+01 0 0 0
337 1 3 4.6566362309140669e-01 7.3001910480069254e+00 5.2802930981777516e+00 8.8098685943804682e+00 0 0 0
341 1 3 4.8046663173825088e-01 1.0857434249806865e+00 2.5715459171282593e+01 8.9709617805910504e+00 0 0 0
344 1 3 4.6466565551820821e-01 1.1809780208657074e+01 1.0786543745240632e+01 6.9051192345636470e-01 0 0 0
346 1 3 4.8294944845138815e-01 -7.6567385371774099e-03 1.6656088358756580e+01 2.5692123130494888e+00 0 0 0
347 1 3 4.2727330093520544e-01 6.1602910633255075e+00 1.8726480871972274e+01 8.9539054666743638e+00 0 0 0
351 1 3 4.3754616560304338e-01 5.0601389362626765e+00 2.1716975681573549e+00 1.2227748805584184e+01 0 0 0
353 1 3 -2.2241130756128510e-01 7.0399673193649797e+00 8.2533661645219087e+00 9.3936096388350840e+00 0 0 0
356 1 3 -2.3060724585746920e-01 6.3393670193700498e+00 2.4933545981674985e+01 5.5094954347527167e+00 0 0 0
357 1 3 -1.9570446815499098e-01 5.8874514428381919e-01 2.3947302125643994e+01 1.1507375977426697e+01 0 0 0
360 1 3 -2.1348292631212828e-01 9.5350709806366325e+00 8.8813615856243882e+00 1.2243250167481303e+00 0 0 0
362 1 3 -2.3677588341843242e-01 3.1153300821116976e+00 1.6147238293489497e+01 2.7011511201396190e+00 0 0 0
366 1 3 -1.9246875538856512e-01 4.9913880995092477e+00 2.6954750083168637e+00 2.8046497882539247e+00 0 0 0
367 1 3 -2.1825543459104421e-01 7.7842356613988350e+00 1.3073164765720446e+00 1.1432340926093453e+01 0 0 0
369 1 3 4.4657178226947436e-01 8.2963325825187741e+00 9.0435969180135363e+00 9.0091949465328689e+00 0 0 0
371 1 3 4.3827635970342244e-01 1.4367125894817523e+01 1.8263654115971381e+01 9.8753130211618156e+00 -1 0 0
372 1 3 4.3566098564298011e-01 5.5102869748727699e+00 2.4537475402612994e+01 6.7120115678856216e+00 0 0 0
373 1 3 4.1835247175724249e-01 -6.8876554371499310e-01 2.4266152572922742e+01 1.2270654833931502e+01 0 0 0
376 1 3 4.3200186894360731e-01 9.1979444117174065e+00 7.8568894927965918e+00 1.4082283581675969e-01 0 0 0
378 1 3 3.9821898748648782e-01 3.6375172571949981e+00 1.4751064155597451e+01 2.8846184859482542e+00 0 0 0
382 1 3 3.9403517476030647e-01 6.4496152107181501e+00 2.4205330998005588e+00 3.0605068804348194e+00 0 0 0
383 1 3 4.2934052451105398e-01 8.8163889356503233e+00 1.8077834552079928e+00 1.2374543165947639e+01 0 0 0
387 1 4 -2.3488489762461601e-01 5.3021305494773308e-01 1.8544082597690640e+01 9.2431936206935070e+00 0 0 0
388 1 4 -3.1408915785579489e-01 2.4550083939752989e+00 2.5234392391362196e+01 4.5081122948509895e+00 0 0 0
391 1 4 -4.3438515221464130e-01 2.3442028587701946e+00 2.4475868158509906e-01 9.9798232312456463e+00 0 0 0
392 1 4 -3.3471942496284490e-01 5.9905757520285778e+00 9.2256699143687531e+00 1.1155772962672533e-01 0 0 0
394 1 4 -2.9092197046302093e-01 5.1999940901316224e+00 1.6184734954903547e+01 6.2347069535680832e+00 0 0 0
398 1 4 -3.1284094362068748e-01 6.1233564985345312e+00 4.2798331409087744e+00 5.9588403359272695e+00 0 0 0
403 1 4 -3.0557183206050409e-01 -1.4205500673809723e+00 1.9355427051181465e+01 8.5166622390363145e+00 0 0 0
404 1 4 -2.4772688930265224e-01 3.1195101638204088e+00 2.6967107879379483e+01 5.7323867986764823e+00 0 0 0
405 1 4 -2.3603134637925297e-01 -1.0630120800542969e-01 1.9541279573045806e+01 -2.5483018372658162e-01 0 0 1
408 1 4 -2.9919617675176507e-01 6.2108469272890696e+00 7.4625045828465062e+00 1.5575642332196697e+00 0 0 0
410 1 4 -2.1350333351055265e-01 6.2209439093095584e+00 1.5689826408551763e+01 4.3065824481742432e+00 0 0 0
414 1 4 -2.8259467838126689e-01 6.3165577404706879e+00 6.1958844379931612e+00 4.8135995624907846e+00 0 0 0
417 1 4 -2.4950564508851097e-01 2.1055384705914015e+00 8.6981244901139796e+00 6.8785414860823284e+00 0 0 0
420 1 4 -2.7666373999346183e-01 6.5767607788566682e+00 2.3263440783707829e+01 8.9317690153765739e-01 0 -1 0
421 1 4 -2.3654809925530723e-01 4.7699985562077907e-01 2.0938386063210970e+01 7.0735965043582576e+00 0 0 0
424 1 4 -1.9233817156238070e-01 7.2918943926013284e+00 1.4201399882138801e+01 2.1263145987960641e+00 0 0 0
426 1 4 -2.6370653688854717e-01 2.8977169578238846e+00 1.9196333864858666e+01 7.4414665137596927e+00 0 0 0
430 1 4 -2.3939222779627573e-01 7.2829954764298122e-01 5.3016965812824521e+00 6.0549563941393831e+00 0 0 0
431 1 4 -2.0725229528866335e-01 2.4020587102902438e+00 2.6706695384306073e+01 1.2167166522958528e+01 0 0 0
436 1 4 -3.2497384826181830e-01 4.4208466752069624e+00 2.3861956305804569e+01 4.6913079350556575e-01 0 0 1
437 1 4 -2.8663781240921971e-01 2.1281018091313748e+00 2.2440411498990962e+01 6.8972020561849066e+00 0 0 0
440 1 4 -3.0655682441328214e-01 8.8249869126287308e+00 1.3617450049485647e+01 5.6755078332549147e-01 0 0 1
442 1 4 -2.6907437832004744e-01 3.9196899668328209e+00 2.0510471168294103e+01 5.8646694768527770e+00 0 0 0
446 1 4 -3.1807203817594387e-01 2.8597166491688752e+00 5.5949458540768564e+00 6.5294564803890118e+00 0 0 0
447 1 4 -2.4928758396366693e-01 4.2487194912295081e+00 -1.3660101008390870e+00 1.2552830711971730e+01 0 0 -1
449 1 4 -2.4919896365229482e-01 1.7649031735840215e+00 6.8491839080827503e+00 1.1404077859168588e+01 0 0 0
452 1 4 -3.6677520190689938e-01 7.7274465846911227e+00 -2.2117135859442638e+00 1.3370535424613443e+00 0 0 0
453 1 4 -2.8707991138444150e-01 2.9480460940921636e+00 1.9552813913863869e+01 1.0551452971435843e+01 0 0 0
456 1 4 -1.9974286969578364e-01 6.3669385751365075e+00 1.1205996483880888e+01 3.8195920034459121e+00 0 0 0
458 1 4 -3.8818470085591966e-01 2.7504008212777675e+00 2.1290922897526599e+01 1.5917935545966553e+00 0 0 0
462 1 4 -2.8283405340787426e-01 3.7495736906359891e+00 6.8821012358568261e+00 3.1393959935865348e+00 0 0 0
463 1 4 -2.7545466593043921e-01 4.6396848298283961e+00 2.7101622253881306e+01 8.4543335316438366e+00 0 0 0
465 1 4 -3.2396226111141552e-01 3.1334742090810357e+00 7.6282410558036080e+00 1.2939253115326814e+01 0 0 0
468 1 4 -2.8005408760408551e-01 7.6364908591893848e+00 -1.5487221697848592e+00 3.5118152449108351e+00 0 0 0
469 1 4 -3.5835052313576565e-01 3.2242676419669354e+00 2.0316640511478184e+01 1.2647017187279580e+01 0 0 0
472 1 4 -3.2926661632711529e-01 6.8301385536531933e+00 9.6339219009693231e+00 5.3429509912127093e+00 0 0 0
474 1 4 -3.4183773204952572e-01 4.6237061162899717e+00 2.1904217857008231e+01 2.6803877690639557e+00 0 0 0
478 1 4 -3.2784642457676438e-01 1.5882677869868271e+00 7.3980389775417112e+00 3.4724715628859553e+00 0 0 0
479 1 4 -3.0531236692570252e-01 8.5539860943453618e+00 -1.5806514919271248e+00 7.8235744263256146e+00 0 1 0
481 1 4 -3.3124162835918652e-01 4.2499131032862500e+00 5.3491675456036720e+00 1.2186334230854914e+01 0 0 0