ITEM: TIMESTEP
0
ITEM: NUMBER OF ATOMS
336
ITEM: BOX BOUNDS xy xz yz pp pp pp
0.0000000000000000e+00 2.6364000320399999e+01 0.0000000000000000e+00
0.0000000000000000e+00 1.1574000358599999e+01 0.0000000000000000e+00
0.0000000000000000e+00 1.0708999633800000e+01 0.0000000000000000e+00
ITEM: ATOMS id type xs ys zs
1 1 0.0920165 0.355177 0.444287
2 1 0.907984 0.644823 0.555713
3 1 0.157984 0.644823 0.944287
4 1 0.342016 0.355177 0.055713
5 1 0.907984 0.855177 0.0557131
6 1 0.0920164 0.144823 0.944287
7 1 0.342016 0.144823 0.555713
8 1 0.157984 0.855177 0.444287
9 1 0.592016 0.355177 0.444287
10 1 0.407984 0.644823 0.555713
11 1 0.657984 0.644823 0.944287
12 1 0.842016 0.355177 0.0557129
13 1 0.407984 0.855177 0.0557129
14 1 0.592016 0.144823 0.944287
15 1 0.842016 0.144823 0.555713
16 1 0.657984 0.855177 0.444287
17 1 0.0240499 0.239802 0.339921
18 1 0.97595 0.760198 0.660079
19 1 0.22595 0.760198 0.839921
20 1 0.27405 0.239802 0.160079
21 1 0.97595 0.739802 0.160079
22 1 0.0240499 0.260198 0.839921
23 1 0.27405 0.260198 0.660079
24 1 0.22595 0.739802 0.339921
25 1 0.52405 0.239803 0.339922
26 1 0.47595 0.760197 0.660078
27 1 0.72595 0.760197 0.839922
28 1 0.77405 0.239802 0.160078
29 1 0.47595 0.739802 0.160078
30 1 0.52405 0.260197 0.839921
31 1 0.77405 0.260197 0.660078
32 1 0.72595 0.739803 0.339922
33 1 0.0742755 0.378699 0.210947
34 1 0.925725 0.621301 0.789053
35 1 0.175725 0.621301 0.710947
36 1 0.324275 0.378699 0.289053
37 1 0.925725 0.878699 0.289053
38 1 0.0742754 0.121301 0.710947
39 1 0.324275 0.121301 0.789053
40 1 0.175725 0.878699 0.210947
41 1 0.574275 0.378699 0.210947
42 1 0.425725 0.621301 0.789053
43 1 0.675725 0.621301 0.710947
44 1 0.824275 0.378699 0.289053
45 1 0.425725 0.878699 0.289053
46 1 0.574275 0.121301 0.710947
47 1 0.824275 0.121301 0.789053
48 1 0.675725 0.878699 0.210947
49 2 0.124518 0.295357 0.427276
50 2 0.875482 0.704643 0.572724
51 2 0.125482 0.704643 0.927276
52 2 0.374518 0.295357 0.0727239
53 2 0.875482 0.795357 0.0727239
54 2 0.124518 0.204643 0.927276
55 2 0.374518 0.204643 0.572724
56 2 0.125482 0.795357 0.427276
57 2 0.624518 0.295357 0.427276
58 2 0.375482 0.704643 0.572724
59 2 0.625482 0.704643 0.927276
60 2 0.874518 0.295357 0.0727239
61 2 0.375482 0.795357 0.0727239
62 2 0.624518 0.204643 0.927276
63 2 0.874518 0.204643 0.572724
64 2 0.625482 0.795357 0.427276
65 2 0.102811 0.404608 0.528766
66 2 0.897189 0.595392 0.471234
67 2 0.147189 0.595392 0.0287663
68 2 0.352811 0.404608 0.971234
69 2 0.897189 0.904608 0.971234
70 2 0.102811 0.0953924 0.0287663
71 2 0.352811 0.0953924 0.471234
72 2 0.147189 0.904608 0.528766
73 2 0.602811 0.404608 0.528766
74 2 0.397189 0.595392 0.471234
75 2 0.647189 0.595392 0.0287663
76 2 0.852811 0.404608 0.971234
77 2 0.397189 0.904608 0.971234
78 2 0.602811 0.0953924 0.0287663
79 2 0.852811 0.0953924 0.471234
80 2 0.647189 0.904608 0.528766
81 2 0.985584 0.203646 0.353326
82 2 0.0144161 0.796354 0.646674
83 2 0.264416 0.796354 0.853326
84 2 0.235584 0.203646 0.146674
85 2 0.0144161 0.703646 0.146674
86 2 0.985584 0.296354 0.853326
87 2 0.235584 0.296354 0.646674
88 2 0.264416 0.703646 0.353326
89 2 0.485584 0.203646 0.353326
90 2 0.514416 0.796354 0.646674
91 2 0.764416 0.796354 0.853326
92 2 0.735584 0.203646 0.146674
93 2 0.514416 0.703646 0.146674
94 2 0.485584 0.296354 0.853326
95 2 0.735584 0.296354 0.646674
96 2 0.764416 0.703646 0.353326
97 2 0.0483245 0.163777 0.318788
98 2 0.951675 0.836223 0.681212
99 2 0.201675 0.836223 0.818788
100 2 0.298325 0.163777 0.181212
101 2 0.951675 0.663777 0.181212
102 2 0.0483245 0.336223 0.818788
103 2 0.298325 0.336223 0.681212
104 2 0.201675 0.663777 0.318788
105 2 0.548325 0.163777 0.318788
106 2 0.451675 0.836223 0.681212
107 2 0.701675 0.836223 0.818788
108 2 0.798325 0.163777 0.181212
109 2 0.451676 0.663777 0.181212
110 2 0.548325 0.336223 0.818788
111 2 0.798325 0.336223 0.681212
112 2 0.701675 0.663777 0.318788
113 2 0.105728 0.318946 0.184587
114 2 0.894272 0.681054 0.815413
115 2 0.144272 0.681054 0.684587
116 2 0.355728 0.318946 0.315413
117 2 0.894272 0.818946 0.315413
118 2 0.105728 0.181054 0.684587
119 2 0.355728 0.181054 0.815413
120 2 0.144272 0.818946 0.184587
121 2 0.605728 0.318946 0.184587
122 2 0.394272 0.681054 0.815413
123 2 0.644272 0.681054 0.684587
124 2 0.855728 0.318946 0.315413
125 2 0.394272 0.818946 0.315413
126 2 0.605728 0.181054 0.684587
127 2 0.855728 0.181054 0.815413
128 2 0.644272 0.818946 0.184587
129 2 0.0732121 0.443361 0.134634
130 2 0.926788 0.556639 0.865366
131 2 0.176788 0.556639 0.634634
132 2 0.323212 0.443361 0.365366
133 2 0.926788 0.943361 0.365366
134 2 0.0732121 0.0566388 0.634634
135 2 0.323212 0.0566388 0.865366
136 2 0.176788 0.943361 0.134634
137 2 0.573212 0.443361 0.134634
138 2 0.426788 0.556639 0.865366
139 2 0.676788 0.556639 0.634634
140 2 0.823212 0.443361 0.365366
141 2 0.426788 0.943361 0.365366
142 2 0.573212 0.0566388 0.634634
143 2 0.823212 0.0566388 0.865366
144 2 0.676788 0.943361 0.134634
145 3 0.0891783 0.43285 0.332531
146 3 0.910822 0.56715 0.667469
147 3 0.160822 0.56715 0.832531
148 3 0.339178 0.43285 0.167469
149 3 0.910822 0.93285 0.167469
150 3 0.0891783 0.0671502 0.832531
151 3 0.339178 0.0671501 0.667469
152 3 0.160822 0.93285 0.332531
153 3 0.589178 0.43285 0.332531
154 3 0.410822 0.56715 0.667469
155 3 0.660822 0.56715 0.832531
156 3 0.839178 0.43285 0.167469
157 3 0.410822 0.93285 0.167469
158 3 0.589178 0.0671501 0.832531
159 3 0.839178 0.0671501 0.667469
160 3 0.660822 0.93285 0.332531
161 3 0.0455472 0.281649 0.461419
162 3 0.954453 0.718351 0.538581
163 3 0.204453 0.718351 0.961419
164 3 0.295547 0.281649 0.038581
165 3 0.954453 0.781649 0.0385809
166 3 0.0455473 0.218351 0.961419
167 3 0.295547 0.218351 0.538581
168 3 0.204453 0.781649 0.461419
169 3 0.545547 0.281649 0.461419
170 3 0.454453 0.718351 0.538581
171 3 0.704453 0.718351 0.961419
172 3 0.795547 0.281649 0.0385812
173 3 0.454453 0.781649 0.0385812
174 3 0.545547 0.218351 0.961419
175 3 0.795547 0.218351 0.538581
176 3 0.704453 0.781649 0.461419
177 3 0.0268631 0.307218 0.220163
178 3 0.973137 0.692782 0.779837
179 3 0.223137 0.692782 0.720163
180 3 0.276863 0.307218 0.279837
181 3 0.973137 0.807218 0.279837
182 3 0.0268631 0.192782 0.720163
183 3 0.276863 0.192782 0.779837
184 3 0.223137 0.807218 0.220163
185 3 0.526863 0.307218 0.220163
186 3 0.473137 0.692782 0.779837
187 3 0.723137 0.692782 0.720163
188 3 0.776863 0.307218 0.279837
189 3 0.473137 0.807218 0.279837
190 3 0.526863 0.192782 0.720163
191 3 0.776863 0.192782 0.779837
192 3 0.723137 0.807218 0.220163
193 3 0.116837 0.549765 0.334279
194 3 0.883163 0.450235 0.665721
195 3 0.133163 0.450235 0.834279
196 3 0.366837 0.549765 0.165721
197 3 0.883163 0.049765 0.165721
198 3 0.116837 0.950235 0.834279
199 3 0.366837 0.950235 0.665721
200 3 0.133163 0.049765 0.334279
201 3 0.616837 0.549765 0.334279
202 3 0.383163 0.450235 0.665721
203 3 0.633163 0.450235 0.834279
204 3 0.866837 0.549765 0.165721
205 3 0.383163 0.049765 0.165721
206 3 0.616837 0.950235 0.834279
207 3 0.866837 0.950235 0.665721
208 3 0.633163 0.049765 0.334279
209 3 0.00558528 0.352252 0.531285
210 3 0.994415 0.647748 0.468715
211 3 0.244415 0.647748 0.0312849
212 3 0.255585 0.352252 0.968715
213 3 0.994415 0.852252 0.968715
214 3 0.00558527 0.147748 0.0312849
215 3 0.255585 0.147748 0.468715
216 3 0.244415 0.852252 0.531285
217 3 0.505585 0.352252 0.531285
218 3 0.494415 0.647748 0.468715
219 3 0.744415 0.647748 0.0312849
220 3 0.755585 0.352252 0.968715
221 3 0.494415 0.852252 0.968715
222 3 0.505585 0.147748 0.0312849
223 3 0.755585 0.147748 0.468715
224 3 0.744415 0.852252 0.531285
225 3 0.981116 0.386648 0.205469
226 3 0.0188837 0.613352 0.794531
227 3 0.268884 0.613352 0.705468
228 3 0.231116 0.386648 0.294531
229 3 0.0188836 0.886648 0.294531
230 3 0.981116 0.113352 0.705469
231 3 0.231116 0.113352 0.794532
232 3 0.268884 0.886648 0.205469
233 3 0.481116 0.386649 0.205468
234 3 0.518884 0.613351 0.794532
235 3 0.768884 0.613351 0.705468
236 3 0.731116 0.386648 0.294531
237 3 0.518884 0.886648 0.294532
238 3 0.481116 0.113351 0.705468
239 3 0.731116 0.113351 0.794532
240 3 0.768884 0.886649 0.205468
241 4 0.117477 0.611513 0.234196
242 4 0.882523 0.388487 0.765804
243 4 0.132523 0.388487 0.734196
244 4 0.367477 0.611513 0.265804
245 4 0.882523 0.111513 0.265804
246 4 0.117477 0.888487 0.734196
247 4 0.367477 0.888487 0.765804
248 4 0.132523 0.111513 0.234196
249 4 0.617477 0.611513 0.234196
250 4 0.382523 0.388487 0.765804
251 4 0.632523 0.388487 0.734196
252 4 0.867477 0.611513 0.265804
253 4 0.382523 0.111513 0.265804
254 4 0.617477 0.888487 0.734196
255 4 0.867477 0.888487 0.765804
256 4 0.632523 0.111513 0.234196
257 4 0.137261 0.584185 0.437027
258 4 0.862739 0.415815 0.562973
259 4 0.112739 0.415815 0.937027
260 4 0.387261 0.584185 0.0629728
261 4 0.862739 0.0841853 0.0629727
262 4 0.137261 0.915815 0.937027
263 4 0.387261 0.915815 0.562973
264 4 0.112739 0.0841853 0.437027
265 4 0.637261 0.584185 0.437027
266 4 0.362739 0.415815 0.562973
267 4 0.612739 0.415815 0.937027
268 4 0.887261 0.584185 0.0629728
269 4 0.362739 0.0841853 0.0629728
270 4 0.637261 0.915815 0.937027
271 4 0.887261 0.915815 0.562973
272 4 0.612739 0.0841853 0.437027
273 4 0.959209 0.315976 0.532365
274 4 0.0407911 0.684024 0.467635
275 4 0.290791 0.684024 0.0323646
276 4 0.209209 0.315976 0.967635
277 4 0.0407911 0.815976 0.967635
278 4 0.959209 0.184024 0.0323646
279 4 0.209209 0.184024 0.467635
280 4 0.290791 0.815976 0.532365
281 4 0.459209 0.315977 0.532365
282 4 0.540791 0.684023 0.467635
283 4 0.790791 0.684023 0.0323646
284 4 0.709209 0.315977 0.967635
285 4 0.540791 0.815977 0.967635
286 4 0.459209 0.184023 0.0323646
287 4 0.709209 0.184023 0.467635
288 4 0.790791 0.815977 0.532365
289 4 0.0202323 0.432888 0.606839
290 4 0.979768 0.567112 0.393161
291 4 0.229768 0.567112 0.106839
292 4 0.270232 0.432888 0.893161
293 4 0.979768 0.932888 0.893161
294 4 0.0202323 0.0671123 0.106839
295 4 0.270232 0.0671123 0.393161
296 4 0.229768 0.932888 0.606839
297 4 0.520232 0.432888 0.606839
298 4 0.479768 0.567112 0.393161
299 4 0.729768 0.567112 0.106839
300 4 0.770232 0.432888 0.893161
301 4 0.479768 0.932888 0.893161
302 4 0.520232 0.0671124 0.106839
303 4 0.770232 0.0671124 0.393161
304 4 0.729768 0.932888 0.606839
305 4 0.937753 0.356474 0.251591
306 4 0.0622475 0.643526 0.748409
307 4 0.312247 0.643526 0.751591
308 4 0.187752 0.356474 0.248409
309 4 0.0622476 0.856474 0.248409
310 4 0.937753 0.143526 0.751591
311 4 0.187753 0.143526 0.748409
312 4 0.312247 0.856474 0.251591
313 4 0.437753 0.356474 0.251591
314 4 0.562247 0.643526 0.748409
315 4 0.812247 0.643526 0.751591
316 4 0.687753 0.356474 0.248409
317 4 0.562247 0.856474 0.248409
318 4 0.437753 0.143526 0.751591
319 4 0.687753 0.143526 0.748409
320 4 0.812247 0.856474 0.251591
321 4 0.985019 0.477359 0.135116
322 4 0.0149808 0.522641 0.864884
323 4 0.264981 0.522641 0.635116
324 4 0.235019 0.477359 0.364884
325 4 0.0149808 0.977359 0.364884
326 4 0.985019 0.022641 0.635116
327 4 0.235019 0.022641 0.864884
328 4 0.264981 0.977359 0.135116
329 4 0.485019 0.477359 0.135116
330 4 0.514981 0.522641 0.864884
331 4 0.764981 0.522641 0.635116
332 4 0.735019 0.477359 0.364884
333 4 0.514981 0.977359 0.364884
334 4 0.485019 0.0226411 0.635116
335 4 0.735019 0.0226411 0.864884
336 4 0.764981 0.977359 0.135116
ITEM: TIMESTEP
1000
ITEM: NUMBER OF ATOMS
336
ITEM: BOX BOUNDS xy xz yz pp pp pp
-3.2938433700122483e-01 2.6785439006025772e+01 2.3040217861589951e-01
-3.1902342870007772e-01 1.2055490022385071e+01 -1.3834782999129169e-01
-1.8336821624829014e-01 1.0892367850048290e+01 1.6246623508500119e-01
ITEM: ATOMS id type xs ys zs
1 1 0.0751708 0.420253 0.460509
2 1 0.903617 0.609945 0.546423
3 1 0.157289 0.611695 0.948278
4 1 0.32154 0.372983 0.0430171
5 1 0.925925 0.866334 0.015942
6 1 0.0994535 0.148494 0.938821
7 1 0.314114 0.0889341 0.555757
8 1 0.165104 0.884517 0.460085
9 1 0.567954 0.405242 0.454733
10 1 0.412102 0.652057 0.573017
11 1 0.67936 0.62658 0.961769
12 1 0.832392 0.403248 0.0440449
13 1 0.434534 0.919192 0.0638164
14 1 0.600229 0.131834 0.88259
15 1 0.841243 0.10751 0.560485
16 1 0.659115 0.870076 0.448381
17 1 0.0320714 0.271201 0.349356
18 1 0.975022 0.74046 0.639613
19 1 0.213123 0.741366 0.837612
20 1 0.271279 0.274976 0.193448
21 1 0.982961 0.74476 0.156083
22 1 0.0242377 0.251496 0.85592
23 1 0.26886 0.245031 0.645511
24 1 0.223919 0.760303 0.332781
25 1 0.52534 0.26927 0.306647
26 1 0.499605 0.736618 0.649951
27 1 0.73417 0.756134 0.834553
28 1 0.78789 0.233034 0.133421
29 1 0.47451 0.777905 0.191997
30 1 0.53127 0.26245 0.80814
31 1 0.770641 0.199918 0.678096
32 1 0.725389 0.761096 0.334566
33 1 0.0756271 0.414097 0.222173
34 1 0.916903 0.625835 0.769314
35 1 0.153501 0.632386 0.718972
36 1 0.337178 0.39685 0.268429
37 1 0.925565 0.880099 0.24536
38 1 0.0740103 0.126948 0.717418
39 1 0.313797 0.104401 0.780513
40 1 0.167618 0.901562 0.227579
41 1 0.576175 0.428745 0.225812
42 1 0.440942 0.639862 0.79409
43 1 0.677915 0.621906 0.733422
44 1 0.844768 0.348304 0.262835
45 1 0.419897 0.917526 0.290931
46 1 0.549807 0.0806203 0.699808
47 1 0.839246 0.10082 0.791404
48 1 0.680678 0.920638 0.228254
49 2 0.106398 0.413915 0.524786
50 2 0.86755 0.635537 0.502172
51 2 0.127705 0.631761 0.0116569
52 2 0.343982 0.360595 0.960795
53 2 0.89173 0.820001 0.98276
54 2 0.123179 0.223491 0.932065
55 2 0.341562 0.0760864 0.485284
56 2 0.131525 0.848798 0.504173
57 2 0.600781 0.358063 0.488071
58 2 0.379921 0.706844 0.54978
59 2 0.646456 0.646953 0.0187522
60 2 0.852506 0.431241 0.962146
61 2 0.412357 0.930142 0.975881
62 2 0.635598 0.177285 0.882593
63 2 0.868627 0.162524 0.511693
64 2 0.625775 0.821424 0.474408
65 2 0.0536816 0.491023 0.497431
66 2 0.912359 0.539519 0.491594
67 2 0.172552 0.537543 0.989402
68 2 0.298391 0.444366 0.0063129
69 2 0.935006 0.918097 0.938605
70 2 0.118637 0.100541 0.0126441
71 2 0.286947 0.0207532 0.544469
72 2 0.17404 0.942968 0.534205
73 2 0.557676 0.44956 0.538478
74 2 0.406007 0.58687 0.507662
75 2 0.696535 0.561758 0.0182017
76 2 0.804213 0.469756 0.0368751
77 2 0.461293 0.987672 0.0574763
78 2 0.60561 0.0813 0.963691
79 2 0.834234 0.032679 0.502515
80 2 0.661335 0.925599 0.524139
81 2 0.996322 0.230354 0.355154
82 2 0.0143325 0.755656 0.629461
83 2 0.250301 0.778763 0.844098
84 2 0.231337 0.258875 0.200294
85 2 0.0235543 0.727535 0.150816
86 2 0.986878 0.29042 0.87375
87 2 0.233684 0.295084 0.640895
88 2 0.261781 0.7247 0.344627
89 2 0.488388 0.229784 0.298545
90 2 0.538569 0.732209 0.617704
91 2 0.774109 0.778365 0.84001
92 2 0.750049 0.200129 0.121131
93 2 0.511322 0.734116 0.20396
94 2 0.498182 0.311737 0.832698
95 2 0.727861 0.204572 0.671733
96 2 0.762072 0.720812 0.345469
97 2 0.0604538 0.202836 0.346796
98 2 0.958892 0.825401 0.637469
99 2 0.185226 0.81022 0.818814
100 2 0.290588 0.196213 0.219875
101 2 0.962721 0.666028 0.176474
102 2 0.0460583 0.323256 0.823854
103 2 0.299986 0.300458 0.665275
104 2 0.199946 0.690974 0.296209
105 2 0.5498 0.196073 0.302298
106 2 0.489468 0.825003 0.662906
107 2 0.714474 0.835906 0.80972
108 2 0.813434 0.158697 0.130526
109 2 0.446534 0.712029 0.207691
110 2 0.557324 0.319547 0.759649
111 2 0.779793 0.287876 0.700367
112 2 0.703377 0.69648 0.299802
113 2 0.104901 0.37427 0.164648
114 2 0.886954 0.691757 0.789007
115 2 0.130023 0.705535 0.695049
116 2 0.363824 0.330149 0.301945
117 2 0.897152 0.819448 0.271718
118 2 0.0968408 0.183588 0.661316
119 2 0.341155 0.148369 0.837361
120 2 0.137224 0.847636 0.197382
121 2 0.612365 0.383164 0.220785
122 2 0.426376 0.718958 0.828158
123 2 0.65038 0.681265 0.691733
124 2 0.874576 0.284893 0.286688
125 2 0.392041 0.860623 0.33045
126 2 0.561894 0.0740503 0.606103
127 2 0.855881 0.183293 0.801779
128 2 0.654419 0.891446 0.156629
129 2 0.0643661 0.484793 0.165364
130 2 0.921138 0.58545 0.860722
131 2 0.150087 0.584613 0.63484
132 2 0.34365 0.471339 0.329496
133 2 0.917437 0.934398 0.326237
134 2 0.0684144 0.0555651 0.656028
135 2 0.305799 0.0438881 0.851459
136 2 0.166456 0.965837 0.157676
137 2 0.578902 0.490013 0.152489
138 2 0.443115 0.58145 0.869453
139 2 0.680439 0.556445 0.665455
140 2 0.842066 0.393695 0.350254
141 2 0.42092 0.983866 0.352485
142 2 0.526242 0.0104591 0.706696
143 2 0.848977 0.0442022 0.875782
144 2 0.692264 0.00201477 0.192133
145 3 0.0980559 0.449201 0.341766
146 3 0.892806 0.565467 0.669435
147 3 0.132539 0.580626 0.831829
148 3 0.353845 0.416762 0.1412
149 3 0.90812 0.925299 0.124061
150 3 0.107104 0.090158 0.820862
151 3 0.341845 0.0693565 0.671564
152 3 0.148909 0.942921 0.346752
153 3 0.57807 0.481635 0.350042
154 3 0.403677 0.609472 0.698897
155 3 0.655438 0.581613 0.849062
156 3 0.861386 0.417965 0.158731
157 3 0.399432 0.943912 0.168358
158 3 0.597619 0.0673201 0.765679
159 3 0.863887 0.0674484 0.676588
160 3 0.646763 0.929609 0.333917
161 3 0.0420493 0.325451 0.470031
162 3 0.94474 0.691785 0.536124
163 3 0.196091 0.70043 0.956586
164 3 0.28595 0.282598 0.0622239
165 3 0.966607 0.780704 0.0310452
166 3 0.050016 0.204651 0.964524
167 3 0.283622 0.193332 0.529719
168 3 0.20458 0.792912 0.451048
169 3 0.532778 0.314504 0.430917
170 3 0.46167 0.70343 0.552201
171 3 0.714909 0.721264 0.954918
172 3 0.802708 0.300708 0.0251566
173 3 0.462196 0.81219 0.0650047
174 3 0.560614 0.215564 0.915899
175 3 0.795887 0.18123 0.561442
176 3 0.702073 0.791929 0.453932
177 3 0.0342311 0.333774 0.229761
178 3 0.965611 0.682987 0.758334
179 3 0.205755 0.672096 0.725519
180 3 0.286106 0.355187 0.287261
181 3 0.975602 0.823133 0.257253
182 3 0.0265346 0.191689 0.739042
183 3 0.267546 0.177794 0.758017
184 3 0.216106 0.838426 0.22634
185 3 0.534125 0.350108 0.205591
186 3 0.493411 0.676996 0.765365
187 3 0.727854 0.675678 0.735093
188 3 0.797327 0.280039 0.253835
189 3 0.467539 0.852223 0.298142
190 3 0.517303 0.183892 0.71118
191 3 0.784439 0.136104 0.790061
192 3 0.724491 0.839621 0.231872
193 3 0.114139 0.567102 0.335255
194 3 0.893095 0.439573 0.686266
195 3 0.127099 0.456223 0.835799
196 3 0.366975 0.536293 0.124895
197 3 0.902584 0.0508071 0.113034
198 3 0.106047 0.965843 0.8341
199 3 0.365516 0.952852 0.67542
200 3 0.122075 0.0529073 0.35883
201 3 0.629222 0.52798 0.372428
202 3 0.390873 0.487717 0.711104
203 3 0.645989 0.459928 0.862838
204 3 0.861203 0.53657 0.196659
205 3 0.375229 0.0572447 0.164608
206 3 0.60905 0.946442 0.787923
207 3 0.874019 0.943841 0.674089
208 3 0.633253 0.0511204 0.353124
209 3 0.99384 0.364221 0.530539
210 3 0.982035 0.640721 0.451258
211 3 0.238882 0.657658 0.0381956
212 3 0.239683 0.306564 0.984619
213 3 0.0107856 0.820007 0.957836
214 3 0.0166466 0.130144 0.0395662
215 3 0.238811 0.163007 0.452275
216 3 0.247685 0.815618 0.539022
217 3 0.484116 0.338084 0.500853
218 3 0.489811 0.637364 0.460596
219 3 0.760039 0.695517 0.0362207
220 3 0.754457 0.335445 0.960801
221 3 0.509428 0.824034 0.989764
222 3 0.528382 0.16706 0.0153044
223 3 0.756008 0.141475 0.470306
224 3 0.743451 0.834772 0.537613
225 3 0.985217 0.389939 0.197482
226 3 0.00714204 0.60051 0.795925
227 3 0.241469 0.574754 0.725961
228 3 0.245828 0.445251 0.303598
229 3 0.0182195 0.903391 0.269262
230 3 0.981596 0.118997 0.719288
231 3 0.221782 0.10657 0.766622
232 3 0.260491 0.914365 0.215626
233 3 0.487237 0.419991 0.180092
234 3 0.525334 0.572512 0.763541
235 3 0.768188 0.584323 0.737789
236 3 0.755951 0.357412 0.291622
237 3 0.511702 0.929129 0.313944
238 3 0.462857 0.154593 0.714402
239 3 0.750134 0.0372402 0.790189
240 3 0.77102 0.908418 0.211444
241 4 0.109161 0.615969 0.231031
242 4 0.90904 0.406154 0.791865
243 4 0.121997 0.398974 0.740344
244 4 0.356287 0.601975 0.214317
245 4 0.901911 0.105756 0.21127
246 4 0.0934205 0.912571 0.736472
247 4 0.36644 0.90068 0.778146
248 4 0.118615 0.120798 0.269746
249 4 0.653237 0.566432 0.280946
250 4 0.382817 0.449548 0.818668
251 4 0.64893 0.396773 0.770052
252 4 0.846416 0.559799 0.306033
253 4 0.37456 0.115983 0.260791
254 4 0.601595 0.876171 0.703982
255 4 0.865213 0.88359 0.76802
256 4 0.639068 0.127323 0.272372
257 4 0.125018 0.623528 0.430462
258 4 0.869457 0.380103 0.61075
259 4 0.124288 0.412575 0.943178
260 4 0.371564 0.578248 0.017421
261 4 0.891272 0.0992007 0.0111912
262 4 0.128841 0.915015 0.922775
263 4 0.372165 0.901638 0.575009
264 4 0.109426 0.077858 0.467855
265 4 0.642868 0.533995 0.484355
266 4 0.378806 0.433639 0.616166
267 4 0.638068 0.418631 0.970155
268 4 0.877145 0.612428 0.123316
269 4 0.366416 0.103975 0.0600586
270 4 0.620994 0.915941 0.897446
271 4 0.883049 0.901728 0.571213
272 4 0.614011 0.0754013 0.456059
273 4 0.951491 0.326419 0.495422
274 4 0.0275459 0.676166 0.451132
275 4 0.282163 0.701091 0.0269696
276 4 0.197215 0.26243 0.0121349
277 4 0.0538851 0.771061 0.977504
278 4 0.986054 0.177613 0.114488
279 4 0.200805 0.227988 0.43344
280 4 0.291784 0.778239 0.517322
281 4 0.441685 0.321485 0.448909
282 4 0.538173 0.643188 0.45628
283 4 0.804402 0.71536 0.998802
284 4 0.719239 0.264358 0.952112
285 4 0.552749 0.792274 0.0307482
286 4 0.484669 0.208877 0.0349258
287 4 0.70947 0.164937 0.484161
288 4 0.787004 0.786915 0.530884
289 4 0.994655 0.441625 0.608556
290 4 0.966665 0.586388 0.358605
291 4 0.232964 0.561167 0.0870396
292 4 0.243445 0.360539 0.883549
293 4 0.00108231 0.863647 0.852754
294 4 0.0264065 0.0280698 0.0510208
295 4 0.242505 0.0722865 0.39559
296 4 0.238607 0.87974 0.628064
297 4 0.485783 0.395915 0.596529
298 4 0.464936 0.575875 0.388169
299 4 0.752751 0.631966 0.129657
300 4 0.746628 0.4381 0.93117
301 4 0.503699 0.868084 0.883793
302 4 0.542013 0.0710685 0.0589792
303 4 0.770573 0.0744117 0.389126
304 4 0.740328 0.938345 0.560332
305 4 0.945237 0.363212 0.257134
306 4 0.0498058 0.602492 0.743197
307 4 0.275785 0.568768 0.806103
308 4 0.199913 0.425758 0.282466
309 4 0.0640008 0.872229 0.256934
310 4 0.959628 0.081104 0.81417
311 4 0.189723 0.108906 0.677732
312 4 0.302372 0.889884 0.272829
313 4 0.445256 0.370102 0.186935
314 4 0.567425 0.57671 0.708153
315 4 0.810107 0.595008 0.792987
316 4 0.722214 0.386204 0.213162
317 4 0.556429 0.899042 0.279679
318 4 0.434128 0.186997 0.801096
319 4 0.702455 0.0519278 0.774574
320 4 0.812923 0.88507 0.266093
321 4 0.982583 0.468504 0.119546
322 4 0.99695 0.524994 0.875549
323 4 0.235384 0.499752 0.643831
324 4 0.258208 0.535248 0.360994
325 4 0.00916237 0.994442 0.326091
326 4 0.966714 0.0939247 0.611806
327 4 0.216144 0.0436264 0.859646
328 4 0.258624 0.999656 0.144081
329 4 0.492588 0.517855 0.137641
330 4 0.513353 0.49334 0.836576
331 4 0.761046 0.497248 0.673703
332 4 0.7653 0.418708 0.384721
333 4 0.503156 0.0177352 0.37188
334 4 0.446409 0.0857321 0.636929
335 4 0.768423 0.948301 0.840784
336 4 0.766449 0.984778 0.129352
ITEM: TIMESTEP
2000
ITEM: NUMBER OF ATOMS
336
ITEM: BOX BOUNDS xy xz yz pp pp pp
-5.1606214700314357e-01 2.6651397296074762e+01 2.9355494403326993e-01
-1.4933639434526125e-01 1.1937149772309173e+01 -5.2222011536164625e-01
-6.0407637050295282e-01 1.1313076004302957e+01 2.1381301936392744e-01
ITEM: ATOMS id type xs ys zs
1 1 0.0917795 0.34571 0.440206
2 1 0.877896 0.638093 0.592178
3 1 0.131388 0.715982 0.91048
4 1 0.327223 0.371095 0.0727512
5 1 0.905574 0.811457 0.0747401
6 1 0.123494 0.176434 0.888786
7 1 0.343566 0.164645 0.577511
8 1 0.154134 0.829702 0.399778
9 1 0.573201 0.380396 0.410258
10 1 0.380702 0.669842 0.627468
11 1 0.650401 0.692706 0.932825
12 1 0.870742 0.338821 0.103678
13 1 0.417167 0.891844 0.0682205
14 1 0.621149 0.122036 0.830765
15 1 0.857539 0.174125 0.5649
16 1 0.646239 0.84738 0.413024
17 1 0.0344605 0.257405 0.293047
18 1 0.9572 0.733706 0.658992
19 1 0.209866 0.756622 0.795624
20 1 0.284134 0.277709 0.237799
21 1 0.975324 0.731771 0.216476
22 1 0.0382819 0.254704 0.836497
23 1 0.285464 0.276411 0.702106
24 1 0.229034 0.765415 0.28902
25 1 0.531128 0.265329 0.249483
26 1 0.466769 0.740694 0.697698
27 1 0.716994 0.746864 0.791697
28 1 0.799524 0.233618 0.193935
29 1 0.46997 0.775269 0.207811
30 1 0.532773 0.217865 0.851091
31 1 0.79172 0.249251 0.693095
32 1 0.723617 0.751467 0.318761
33 1 0.105032 0.384129 0.230469
34 1 0.910487 0.621167 0.792599
35 1 0.14132 0.637972 0.708687
36 1 0.352468 0.42564 0.273076
37 1 0.91291 0.870288 0.279719
38 1 0.0832274 0.146314 0.692097
39 1 0.342301 0.128311 0.788318
40 1 0.167991 0.90806 0.203667
41 1 0.570218 0.457985 0.217945
42 1 0.420351 0.602517 0.818921
43 1 0.654095 0.591245 0.743668
44 1 0.85131 0.366897 0.311611
45 1 0.404984 0.918621 0.280123
46 1 0.559601 0.151758 0.667036
47 1 0.855452 0.093938 0.764129
48 1 0.664509 0.897196 0.213003
49 2 0.119747 0.278606 0.469379
50 2 0.850886 0.70698 0.619826
51 2 0.108235 0.795739 0.88441
52 2 0.35073 0.330575 0.0113121
53 2 0.874519 0.74792 0.0888373
54 2 0.144503 0.255186 0.882474
55 2 0.374099 0.222695 0.557404
56 2 0.122991 0.767209 0.392867
57 2 0.61558 0.362588 0.418113
58 2 0.350129 0.73071 0.646062
59 2 0.625138 0.76807 0.903825
60 2 0.903139 0.273342 0.112507
61 2 0.38619 0.853115 0.014205
62 2 0.645931 0.197639 0.826933
63 2 0.884999 0.24662 0.57462
64 2 0.611717 0.794537 0.411647
65 2 0.0910928 0.393821 0.519346
66 2 0.857263 0.597394 0.524281
67 2 0.116769 0.693529 0.989962
68 2 0.300159 0.429061 0.0201906
69 2 0.895302 0.843093 0.991196
70 2 0.144806 0.135125 0.959991
71 2 0.341568 0.116725 0.497195
72 2 0.151334 0.876807 0.480386
73 2 0.562412 0.407027 0.494368
74 2 0.363499 0.627416 0.55118
75 2 0.643687 0.665817 0.0208163
76 2 0.876361 0.390983 0.0258476
77 2 0.433716 0.956506 0.012649
78 2 0.646114 0.0590662 0.880681
79 2 0.864995 0.151459 0.477344
80 2 0.643197 0.8918 0.49301
81 2 0.993306 0.276117 0.276748
82 2 0.995903 0.756991 0.63765
83 2 0.250839 0.764164 0.809731
84 2 0.244232 0.251861 0.259639
85 2 0.0147141 0.714166 0.221101
86 2 0.00164299 0.290834 0.869739
87 2 0.245486 0.306555 0.696508
88 2 0.268567 0.737028 0.298993
89 2 0.494164 0.22698 0.225918
90 2 0.504932 0.776506 0.673989
91 2 0.758522 0.761049 0.789041
92 2 0.758503 0.221686 0.176162
93 2 0.50946 0.750583 0.215282
94 2 0.503771 0.220957 0.913305
95 2 0.75252 0.276195 0.701268
96 2 0.765633 0.74881 0.344799
97 2 0.0346018 0.165233 0.274611
98 2 0.942441 0.819059 0.684091
99 2 0.199748 0.845033 0.76204
100 2 0.30566 0.199336 0.276728
101 2 0.96767 0.647579 0.253371
102 2 0.0536647 0.334972 0.810893
103 2 0.306239 0.351212 0.728597
104 2 0.21333 0.691409 0.244912
105 2 0.558786 0.199822 0.219532
106 2 0.454439 0.81896 0.739228
107 2 0.698594 0.818448 0.74044
108 2 0.814158 0.146849 0.216558
109 2 0.452298 0.693443 0.227111
110 2 0.541295 0.309109 0.838661
111 2 0.812668 0.322724 0.719511
112 2 0.712528 0.668008 0.278946
113 2 0.13954 0.337269 0.201576
114 2 0.887671 0.696075 0.828663
115 2 0.116083 0.704814 0.666587
116 2 0.380471 0.363868 0.312111
117 2 0.885953 0.807718 0.313724
118 2 0.103847 0.201925 0.63755
119 2 0.370531 0.18805 0.827008
120 2 0.143939 0.854784 0.149006
121 2 0.610442 0.432183 0.210102
122 2 0.401046 0.669473 0.867764
123 2 0.626099 0.637546 0.684612
124 2 0.88316 0.308898 0.34444
125 2 0.371232 0.873221 0.315242
126 2 0.575028 0.231049 0.638954
127 2 0.876375 0.152886 0.813408
128 2 0.638005 0.835853 0.173591
129 2 0.107798 0.46288 0.17878
130 2 0.914321 0.561309 0.869385
131 2 0.132034 0.561335 0.660419
132 2 0.361505 0.50556 0.321401
133 2 0.907226 0.947589 0.333506
134 2 0.0759623 0.0742074 0.634405
135 2 0.345306 0.0511755 0.839067
136 2 0.168732 0.990611 0.162895
137 2 0.564628 0.53218 0.161252
138 2 0.424936 0.523775 0.873401
139 2 0.64842 0.502669 0.713618
140 2 0.846104 0.434638 0.37323
141 2 0.402518 0.000119189 0.326972
142 2 0.549498 0.108187 0.592102
143 2 0.863349 0.0226004 0.818231
144 2 0.663961 0.96608 0.145309
145 3 0.117084 0.411626 0.351421
146 3 0.877812 0.571773 0.69752
147 3 0.120412 0.626017 0.82402
148 3 0.359119 0.439292 0.149642
149 3 0.892296 0.892848 0.162961
150 3 0.122434 0.111494 0.779804
151 3 0.363798 0.0980409 0.677889
152 3 0.141252 0.918833 0.312038
153 3 0.568343 0.487654 0.340095
154 3 0.384002 0.581336 0.722402
155 3 0.630771 0.603166 0.85682
156 3 0.873275 0.410621 0.205786
157 3 0.389671 0.948693 0.16164
158 3 0.605205 0.0861688 0.712695
159 3 0.873907 0.0837872 0.648065
160 3 0.637442 0.929599 0.318303
161 3 0.0469847 0.273423 0.412427
162 3 0.922293 0.707176 0.561613
163 3 0.186357 0.750094 0.908974
164 3 0.292758 0.281696 0.115907
165 3 0.953137 0.739162 0.0969318
166 3 0.0757443 0.224221 0.930594
167 3 0.30143 0.247989 0.584171
168 3 0.203013 0.765238 0.399396
169 3 0.539007 0.286684 0.373599
170 3 0.428625 0.72729 0.601219
171 3 0.699484 0.748349 0.909165
172 3 0.825525 0.265015 0.088269
173 3 0.457161 0.80176 0.0880857
174 3 0.581795 0.172623 0.904692
175 3 0.804641 0.226949 0.575189
176 3 0.692643 0.767826 0.419224
177 3 0.0554737 0.329535 0.201525
178 3 0.960641 0.665725 0.765845
179 3 0.193743 0.675814 0.702858
180 3 0.301967 0.376307 0.303331
181 3 0.964594 0.816807 0.302522
182 3 0.0331807 0.189648 0.729802
183 3 0.291466 0.192398 0.793537
184 3 0.220476 0.857796 0.200729
185 3 0.538374 0.36688 0.17298
186 3 0.470173 0.654015 0.789353
187 3 0.705242 0.641051 0.73127
188 3 0.804896 0.295669 0.301862
189 3 0.45417 0.856482 0.299588
190 3 0.514979 0.178835 0.736928
191 3 0.805073 0.150847 0.773989
192 3 0.71439 0.836673 0.222306
193 3 0.113303 0.536833 0.372101
194 3 0.888019 0.444431 0.677559
195 3 0.127686 0.508579 0.873794
196 3 0.35409 0.565518 0.126498
197 3 0.89848 0.0164672 0.12684
198 3 0.120648 0.984383 0.799342
199 3 0.356002 0.975249 0.648508
200 3 0.147742 0.0359771 0.360201
201 3 0.612206 0.562983 0.369573
202 3 0.391774 0.461272 0.681894
203 3 0.637737 0.488462 0.91598
204 3 0.8517 0.528133 0.174015
205 3 0.390815 0.0763138 0.151528
206 3 0.595189 0.960791 0.72006
207 3 0.860099 0.967034 0.601273
208 3 0.649171 0.0474271 0.358633
209 3 0.000504588 0.30547 0.479205
210 3 0.953199 0.62903 0.487357
211 3 0.219041 0.673798 0.988254
212 3 0.241538 0.290187 0.0481811
213 3 0.991507 0.780853 0.0175245
214 3 0.049428 0.143356 0.011495
215 3 0.255436 0.201745 0.519677
216 3 0.240595 0.809024 0.490027
217 3 0.487626 0.303876 0.426418