LAMMPS data file via write_data, version 15 Apr 2020, timestep = 80000

336 atoms
4 atom types

7.2349745114104991e-01 2.5640502869258743e+01 xlo xhi
1.4372588099313877e-01 1.1430274477607220e+01 ylo yhi
-1.3774667598048804e+00 1.2086466393604985e+01 zlo zhi
-5.9181273535538981e-01 3.1106481517745022e+00 -8.7981628684906221e-02 xy xz yz

Masses

1 12.0107
2 1.00794
3 14.0067
4 15.9994

Atoms # full

1 1 1 5.3901028432829824e-02 3.1140215870415329e+00 3.8800029313424846e+00 8.8234535010164716e-01 0 0 0
2 1 1 4.1149728940378591e-02 2.5076983518403289e+01 6.1586838310831489e+00 5.2451444780509506e+00 0 0 0
3 1 1 7.3297564178158664e-02 6.7803804452422884e+00 7.9375825039999981e+00 8.5562741062870966e+00 0 0 0
4 1 1 4.9131839550939249e-02 9.8456204915693846e+00 3.8948024839408939e+00 1.1554798293590474e-01 0 0 0
5 1 1 4.9952194941796771e-02 2.3110055370374312e+01 9.2552302023085460e+00 4.1748921149714380e-01 0 0 0
6 1 1 3.7830452805671475e-02 4.7639169417402210e+00 1.8715702709624751e+00 8.4086879751376014e+00 0 0 0
7 1 1 4.0370340154269817e-02 1.1659986238434623e+01 2.1466155821142756e+00 6.8651734471812205e+00 0 0 0
8 1 1 6.1032539589192289e-02 4.6481608962972096e+00 9.3156803950535512e+00 1.8898689066319445e+00 0 0 0
9 1 1 5.0092360483718054e-02 1.4980522569942602e+01 3.8265569740439394e+00 4.5303971993210954e+00 0 0 0
10 1 1 3.7281594448156499e-02 1.2689271626711053e+01 7.8363267494439670e+00 1.0308301028827515e+01 0 0 0
11 1 1 2.7835217123910905e-02 1.9030755285382490e+01 8.1603192305480263e+00 1.1691993203831359e+01 0 0 0
12 1 1 4.2061366226209429e-02 2.2950895781762689e+01 2.9186372241536671e+00 4.7150590187775254e+00 0 0 0
13 1 1 5.8401874612737797e-02 1.2038044556002729e+01 9.2698960710175129e+00 1.2032329068502010e+00 0 0 0
14 1 1 6.0570180146830348e-02 1.8067402546914689e+01 2.3651822587228364e+00 8.8887005210054131e+00 0 0 0
15 1 1 3.4611200271799973e-02 2.2449037182361753e+01 4.1423796162471707e+00 9.8092770791968160e+00 0 0 0
16 1 1 5.0796357844057990e-02 1.9305672168280573e+01 7.5816147734665842e+00 6.2597635179669844e+00 0 0 0
17 1 1 5.4998670424692322e-02 1.0805922776363934e+00 2.8730488185476801e+00 -2.4163909266561268e-01 0 0 0
18 1 1 6.2436757416418839e-02 2.6471731493141085e+01 8.2347395879571330e+00 5.8918478933642993e+00 0 0 0
19 1 1 3.9943111409978777e-02 8.4794223021460908e+00 9.1068950527044912e+00 7.1321929687477645e+00 0 0 0
20 1 1 4.7575777415695047e-02 7.6531753712377508e+00 2.8970377919968096e+00 9.9685920675946260e-01 0 0 0
21 1 1 4.2882327867752978e-02 2.6794423943340210e+01 1.0061489000798044e+01 1.1567486189392589e+01 0 0 -1
22 1 1 6.7279954961762423e-02 3.2644218076809204e+00 2.5857633155762385e+00 6.5109160598088645e+00 0 0 0
23 1 1 7.1659141825788683e-02 9.5358733799905870e+00 3.3523800591495432e+00 7.5819392271539972e+00 0 0 0
24 1 1 4.8075262510062396e-02 6.8180959069155840e+00 8.5857469885532112e+00 7.4943884034097019e-01 0 0 0
25 1 1 5.1206945931560041e-02 1.3626635901198059e+01 3.2203564490354668e+00 2.5429526719950166e+00 0 0 0
26 1 1 3.5410788645975626e-02 1.2731226935803052e+01 7.5515050504960826e+00 7.7839388959572720e+00 0 0 0
27 1 1 4.7011081020892374e-02 1.8159224592597617e+01 8.8764510204553524e+00 -7.7192460051137779e-01 0 0 1
28 1 1 5.6419288883612057e-02 2.1463636299973611e+01 2.0556937470310017e+00 2.8872976502899119e+00 0 0 0
29 1 1 4.0077926826472751e-02 1.2753875646917859e+01 8.3878667051353979e+00 3.3929828525194816e+00 0 0 0
30 1 1 5.3191060175980867e-02 1.7047364864048745e+01 2.8678470293341816e+00 1.1135871217052346e+01 0 0 0
31 1 1 4.8901350400721078e-02 1.9853914626056657e+01 3.6557441837773044e+00 -1.2132824098388979e+00 0 0 1
32 1 1 6.2602527145411729e-02 2.0055870092949423e+01 7.2619430901225952e+00 3.8663894045304037e+00 0 0 0
33 1 1 4.9592939810753432e-02 6.2012818673609056e+00 3.4899788554949942e+00 1.1846063488783644e+01 0 0 -1
34 1 1 5.0727995201373138e-02 2.4873509119607270e+01 7.2078186846233647e+00 7.5962250357265209e+00 0 0 0
35 1 1 3.5708858843766435e-02 6.8332264510861087e+00 7.3287930783108965e+00 6.1698689228209131e+00 0 0 0
36 1 1 5.8583749201239793e-02 9.1540925451132367e+00 4.2202498173799956e+00 2.5048656767918285e+00 0 0 0
37 1 1 5.1028119268448129e-02 2.4874336731566220e+01 8.0680631330807095e+00 -9.6655715255664365e-01 0 0 0
38 1 1 4.9554968816940617e-02 5.5200731876984133e+00 1.4480722010238904e+00 5.9677534981497269e+00 0 0 0
39 1 1 3.8402647882526134e-02 1.0994052381701787e+01 2.2202196698009455e+00 9.2648918492882686e+00 0 0 0
40 1 1 5.8160561857394127e-02 4.9781375864815622e+00 9.7332761063534292e+00 -5.8845908741158037e-01 0 0 0
41 1 1 4.2518446950054328e-02 1.5445974532317752e+01 4.9917913864288401e+00 2.4170562484777949e+00 0 0 0
42 1 1 5.6866187162275136e-02 1.4198068842632205e+01 9.2938147980333419e+00 8.8317543464523531e+00 0 0 0
43 1 1 3.8372406608725665e-02 2.0836143311327476e+01 9.0919117862891632e+00 1.0211671468996231e+01 0 0 0
44 1 1 4.4735307857366027e-02 2.0739917490671793e+01 1.9173433463379537e+00 5.3106461934982674e+00 0 0 0
45 1 1 5.2819928444956241e-02 1.1047743986335327e+01 1.0195869487875687e+01 3.4694122782958727e+00 0 0 0
46 1 1 5.7160542697961392e-02 1.5996281948319476e+01 3.7865824753226800e+00 9.0540097824548003e+00 0 0 0
47 1 1 5.0289667802767751e-02 2.4111740547268248e+01 2.3921938195999881e+00 1.0381278392892234e+01 0 0 0
48 1 1 4.6911186878304346e-02 1.8020415452309052e+01 8.7120302848665219e+00 4.3596574590930244e+00 0 0 0
49 1 2 2.3221684418103902e-01 3.4864629750612628e+00 2.9075430621419205e+00 1.1035001618232223e+00 0 0 0
50 1 2 2.7378443059938501e-01 2.4259235943448971e+01 6.5314974014201290e+00 4.5842424304857889e+00 0 0 0
51 1 2 2.5877081876961294e-01 5.9197505307107399e+00 8.7140560224202197e+00 8.5868506381469256e+00 0 0 0
52 1 2 2.3508607866399475e-01 1.0582028001103565e+01 3.0871330116379236e+00 3.7703824473392578e-01 0 0 0
53 1 2 2.4705424338683277e-01 2.2263768071412237e+01 8.5679568259309384e+00 1.8481568171084573e-01 0 0 0
54 1 2 2.3714703254300099e-01 5.2406268112369840e+00 2.7880496330182609e+00 8.5469971040254862e+00 0 0 0
55 1 2 2.2882390830529492e-01 1.2419207822415411e+01 2.9671716499421774e+00 6.9674038408634225e+00 0 0 0
56 1 2 2.5102200601066116e-01 4.0139868131243404e+00 8.4628215442291008e+00 2.2349588620780714e+00 0 0 0
57 1 2 2.4184962374988048e-01 1.5666403943076720e+01 2.9514138916007724e+00 4.3433324394909114e+00 0 0 0
58 1 2 2.5016715770919523e-01 1.1876956885338409e+01 8.5240684911815627e+00 1.0330154326287218e+01 0 0 0
59 1 2 2.5279914011223620e-01 1.8508906303756159e+01 9.0701839554768746e+00 1.1927328519898683e+01 0 0 0
60 1 2 2.0914534380620720e-01 2.3620480496724007e+01 2.0489355292687019e+00 4.8977795453667454e+00 0 0 0
61 1 2 2.5472943561191458e-01 1.1251502880385255e+01 8.5787921419703892e+00 9.1131705697598298e-01 0 0 0
62 1 2 2.5430098905739990e-01 1.8852997175939787e+01 3.1689789458689326e+00 8.7679866945627793e+00 0 0 0
63 1 2 2.3682556443622915e-01 2.3033164566283574e+01 5.0500013641238519e+00 9.6306491172777537e+00 0 0 0
64 1 2 2.7287823884411483e-01 1.8786334364085686e+01 6.6686579079718058e+00 6.6678593123963399e+00 0 0 0
65 1 2 2.5711676137455797e-01 3.5250909014567422e+00 4.4502104142788736e+00 1.7777630443701247e+00 0 0 0
66 1 2 2.1930463298950806e-01 2.5329694422006241e+01 5.1089464232013624e+00 4.8416216309491595e+00 0 0 0
67 1 2 2.4803857940195115e-01 6.5666929831676093e+00 7.4813015697923939e+00 9.5357331645134646e+00 0 0 -1
68 1 2 2.7738868720947840e-01 1.0215575045141048e+01 4.3746598565188908e+00 -7.5948644538454957e-01 0 0 1
69 1 2 2.4500110454875224e-01 2.2972901657128812e+01 9.6981236718091601e+00 1.4136892524335791e+00 0 0 1
70 1 2 2.3556513838310988e-01 4.7004786495598427e+00 1.4502687672360102e+00 9.4751115754983015e+00 0 0 -1
71 1 2 2.4713827082522383e-01 1.2032892298218957e+01 1.4979514191046486e+00 6.0773912871291405e+00 0 0 0
72 1 2 2.3375883447887763e-01 4.2069938834485434e+00 9.9290236092746333e+00 2.7059120308998814e+00 0 0 0
73 1 2 2.4684322216587795e-01 1.5000083640143933e+01 3.9675887361450886e+00 5.6347277843800931e+00 0 0 0
74 1 2 2.6172493580996803e-01 1.2653748605996864e+01 7.3901544574354912e+00 1.1327654711106772e+01 0 0 0
75 1 2 2.3635676494238891e-01 1.8340859967647475e+01 7.2965468132963229e+00 1.1751849334401733e+01 0 0 -1
76 1 2 2.1213414086446600e-01 2.3493034117079706e+01 3.8155517337367084e+00 4.9583020355681144e+00 0 0 1
77 1 2 2.7604829801950098e-01 1.2414661989803637e+01 9.6887574256067630e+00 2.2731114388405183e-01 0 0 1
78 1 2 2.4387407104470479e-01 1.8357418587510406e+01 1.4347546770649864e+00 8.3891643078400993e+00 0 0 -1
79 1 2 2.5916209188337153e-01 2.1567550478080491e+01 4.1894732477988228e+00 9.1775425595927071e+00 0 0 0
80 1 2 2.4329024200284599e-01 1.9708815404066065e+01 7.9267580321526783e+00 7.2280673880714144e+00 0 0 0
81 1 2 2.5854049413039593e-01 2.4929838867234199e+01 3.1072921245015861e+00 -2.5969168306126766e-01 0 0 0
82 1 2 2.4153675124023524e-01 2.5548065550067087e+00 8.6913812889454931e+00 5.8239539453764921e+00 0 0 0
83 1 2 2.3556366154485925e-01 9.5535376538802002e+00 9.5655181162232488e+00 7.0633409677255834e+00 0 0 0
84 1 2 2.4887702717756344e-01 6.6001538633348735e+00 2.8806612166329018e+00 6.9101094104103344e-01 0 0 0
85 1 2 2.6765501330908575e-01 2.7134993030566569e+01 1.1133376573687887e+01 1.1321712551176132e+01 -1 0 -1
86 1 2 2.2799746338740379e-01 2.7104771534520463e+01 2.6068999101965042e+00 6.1933073890505437e+00 0 0 0
87 1 2 2.4423403682439543e-01 8.4359637845295072e+00 3.6612107465835102e+00 7.4042576846915384e+00 0 0 0
88 1 2 2.3306326560483664e-01 7.9030856064357771e+00 8.5855167175886891e+00 9.6655742787260301e-01 0 0 0
89 1 2 2.2340876967187323e-01 1.2620027688904580e+01 2.9725424562896579e+00 2.0969710055898503e+00 0 0 0
90 1 2 2.3763462066131827e-01 1.2733335057655671e+01 6.7386857474471871e+00 7.0058699436335736e+00 0 0 0
91 1 2 2.6479465810706621e-01 1.8921558835479754e+01 8.3807848968293861e+00 -1.1827506194186110e-01 0 0 1
92 1 2 2.5513232715213774e-01 2.1122159450021343e+01 2.2203627648342517e+00 1.8574516502154492e+00 0 0 0
93 1 2 2.1897822911158105e-01 1.3608692216601419e+01 7.9434329663572703e+00 3.9573079310495771e+00 0 0 0
94 1 2 2.3513090211768717e-01 1.6766656193205861e+01 2.3018232132314167e+00 1.2026592790349095e+01 0 0 0
95 1 2 2.5996295918501261e-01 1.9317259003471733e+01 3.4221477884572558e+00 -3.1946256797365402e-01 0 0 1
96 1 2 2.2424918403554689e-01 2.0958000338713315e+01 7.2192339984597336e+00 3.1746583539444462e+00 0 0 0
97 1 2 2.3159665803717266e-01 1.2558541017764240e+00 1.8007625102017006e+00 1.2430447589841309e-01 0 0 0
98 1 2 2.3906665791545420e-01 2.5838013106692284e+01 9.0933735226721879e+00 5.5001004460350282e+00 0 0 0
99 1 2 2.4443328663105984e-01 7.9769671785986942e+00 9.9758452288521013e+00 6.8071018248038975e+00 0 0 0
100 1 2 2.5698946591726984e-01 7.9416293452374394e+00 1.7953470301067214e+00 1.1641128486075774e+00 0 0 0
101 1 2 2.4070562659734052e-01 2.6044656644719300e+01 9.6041398825963569e+00 1.0915707870945035e+01 0 0 -1
102 1 2 2.4794608216030711e-01 3.5567314399369021e+00 3.7139009562326932e+00 6.5066261691506861e+00 0 0 0
103 1 2 2.4749193179809792e-01 1.0125503861480055e+01 4.3563754746607151e+00 7.5636617069270393e+00 0 0 0
104 1 2 2.4888369007534847e-01 6.6541169443797745e+00 7.4381069941671605e+00 5.0561587945561137e-01 0 0 0
105 1 2 2.2592373664406359e-01 1.4154994286170711e+01 2.2546472436383973e+00 2.3356332384615959e+00 0 0 0
106 1 2 2.3621085328391381e-01 1.1817525347832730e+01 8.1717859889659863e+00 7.4108636037572477e+00 0 0 0
107 1 2 2.3516101989749191e-01 1.7995631831688218e+01 9.9006800113830558e+00 -3.3799358756869147e-01 0 0 1
108 1 2 2.3604900363956521e-01 2.1987494013166732e+01 1.0279198736725186e+00 2.9000391939574541e+00 0 0 0
109 1 2 2.7004484961487768e-01 1.2005220280978280e+01 7.5808157080107117e+00 3.3922119689218597e+00 0 0 0
110 1 2 2.6146536763916900e-01 1.7623299741840345e+01 3.7796964631550538e+00 1.1517525468630698e+01 0 0 0
111 1 2 2.4452608184613300e-01 2.0468551806862461e+01 4.5799261103084881e+00 -8.9732971607867529e-01 0 0 1
112 1 2 2.7468086139790759e-01 1.9677092650457745e+01 6.2504715210484729e+00 3.5855783983318261e+00 0 0 0
113 1 2 2.7281723116939033e-01 6.9328075407662721e+00 2.6290003066759815e+00 1.1769995946405935e+01 0 0 -1
114 1 2 2.5707601892203363e-01 2.4063811728692105e+01 7.9450886891312962e+00 7.4877668807488202e+00 0 0 0
115 1 2 2.4408281147070715e-01 6.0376437276878470e+00 8.0042858123136789e+00 5.8186267149934077e+00 0 0 0
116 1 2 2.3614685035378644e-01 9.7835442225616944e+00 3.2836601590905228e+00 2.7608307873677100e+00 0 0 0
117 1 2 2.5146932800924865e-01 2.4280987432251198e+01 7.2422104916206749e+00 -1.3192212214768524e+00 0 0 0
118 1 2 2.4960876420022193e-01 6.3046939782964806e+00 2.2488488504630073e+00 5.7401737472523333e+00 0 0 0
119 1 2 2.6727838719948638e-01 1.1631181005604112e+01 3.0028001897243080e+00 9.6442439003522686e+00 0 0 0
120 1 2 2.7000225286738472e-01 4.6130262064178451e+00 8.7953690343906565e+00 -1.1005323974732788e+00 0 0 0
121 1 2 2.4686560526975160e-01 1.6280653007794648e+01 4.4366153181143106e+00 1.9248588142012344e+00 0 0 0
122 1 2 2.5088377075360047e-01 1.3538804285202747e+01 1.0190393163951157e+01 8.6908900069477610e+00 0 0 0
123 1 2 2.5428748006568497e-01 2.0593722519059913e+01 1.0145347305903449e+01 1.0214310160933975e+01 0 0 0
124 1 2 2.2404728480451858e-01 2.0994234569539458e+01 9.3567188474145357e-01 5.7632141519480884e+00 0 0 0
125 1 2 2.6470679083118093e-01 1.0156713156674163e+01 9.5981968058884917e+00 3.8112239560082193e+00 0 0 0
126 1 2 2.4335454902689624e-01 1.6406421780538899e+01 4.8228639151368684e+00 9.0572926147968325e+00 0 0 0
127 1 2 2.5136603220335979e-01 2.5024269659193578e+01 2.9895184631776139e+00 1.0261403136420597e+01 0 0 0
128 1 2 2.2669514678704075e-01 1.7213091730238645e+01 8.0270427195808960e+00 4.1695335567926861e+00 0 0 0
129 1 2 2.3734108664532355e-01 6.3628513771753195e+00 4.0874345121358839e+00 1.0927868376048938e+01 0 0 -1
130 1 2 2.4979949756742781e-01 2.4945458088264417e+01 6.7846607133460095e+00 8.6395648118712600e+00 0 0 0
131 1 2 2.1641175066967078e-01 6.6865470143110626e+00 6.4944692316142776e+00 5.4700427587655795e+00 0 0 0
132 1 2 2.5527532428819993e-01 9.2075102612587880e+00 4.8675189871454529e+00 3.3698610291507718e+00 0 0 0
133 1 2 2.6171552183048113e-01 9.8096856970045287e-01 7.6419299833872483e+00 -8.4044135305857404e-01 1 0 0
134 1 2 2.3994166677428558e-01 5.9184804671363569e+00 7.4955595026947364e-01 5.2573528049422888e+00 0 0 0
135 1 2 2.4874116048713682e-01 1.0840545760467915e+01 1.6049323862960114e+00 1.0235459001916771e+01 0 0 0
136 1 2 2.6022722185544889e-01 4.8250257832351178e+00 1.0498988125837588e+01 -1.3284376932768769e+00 0 0 0
137 1 2 2.4216178129613841e-01 1.5564838532247258e+01 6.0407029136446146e+00 2.0110202095728607e+00 0 0 0
138 1 2 2.6858104520854409e-01 1.5257946343437940e+01 9.5935656954317672e+00 8.8291577206088618e+00 0 0 0
139 1 2 2.5916353629377303e-01 2.1398577949792667e+01 8.9553227744041273e+00 9.2730020798898867e+00 0 0 0
140 1 2 2.3546231305955051e-01 1.9821660858320833e+01 2.1403579357745106e+00 5.8140015017449072e+00 0 0 0
141 1 2 2.6729910822212904e-01 1.0862315325714086e+01 1.1151451931618926e+01 3.9221885969324326e+00 0 0 0
142 1 2 2.2748493994366550e-01 1.5021512034188882e+01 3.9106480874296214e+00 8.4992477428950046e+00 0 0 0
143 1 2 2.5105631284097280e-01 2.4435393552002420e+01 1.3144772114501653e+00 1.0136795214510014e+01 0 0 0
144 1 2 2.2552135512140514e-01 1.7658994412531271e+01 9.6653063628380878e+00 3.9281016539028402e+00 0 0 0
145 1 3 -2.5629404971413494e-01 3.6950199377186959e+00 4.2601658642109390e+00 -4.2261748436851354e-01 0 0 0
146 1 3 -2.5857232043758904e-01 2.4548952202248149e+01 6.0758988881720652e+00 6.6635094961913381e+00 0 0 0
147 1 3 -2.5305439989801121e-01 6.3989607394199091e+00 6.9484339117665188e+00 7.5337815594432360e+00 0 0 0
148 1 3 -2.7585376142740814e-01 9.8850319528165951e+00 4.7831882072870906e+00 1.3154357082648613e+00 0 0 0
149 1 3 -2.5839312596160213e-01 2.4243117515486269e+01 8.2754772861977060e+00 3.9467842728045976e-01 0 0 0
150 1 3 -2.2617741273101050e-01 5.6231384854392683e+00 1.0937491991914587e+00 7.4626298505305719e+00 0 0 0
151 1 3 -2.4054971622643700e-01 1.1866064665839835e+01 1.5697657416878823e+00 8.2186196036058980e+00 0 0 0
152 1 3 -2.2390365629438144e-01 4.1923217300121092e+00 1.0036344182589783e+01 6.4380390091692918e-01 0 0 0
153 1 3 -2.4454782694119806e-01 1.5487575832406824e+01 5.1295268004166985e+00 3.8994816430771664e+00 0 0 0
154 1 3 -2.5870858550828241e-01 1.3933376068738699e+01 8.7006906631524430e+00 1.0190146180913873e+01 0 0 0
155 1 3 -2.1634431999647713e-01 1.9522519357830681e+01 8.3221079651092253e+00 1.0308784086285279e+01 0 0 0
156 1 3 -2.6553672554367391e-01 2.1849630401900544e+01 2.8115296421372467e+00 5.7003634772322913e+00 0 0 0
157 1 3 -2.7633844541870983e-01 1.1166302774439330e+01 1.0219536733661453e+01 1.9439835754553330e+00 0 0 0
158 1 3 -2.8997925253287621e-01 1.6898998365751481e+01 2.9412358684032811e+00 8.1782941180430395e+00 0 0 0
159 1 3 -2.6334560192656292e-01 2.3136117291589485e+01 2.8951301063145403e+00 9.3391439465043415e+00 0 0 0
160 1 3 -2.2326312713091798e-01 1.8219529445362440e+01 8.5888804134557333e+00 5.8177582020850380e+00 0 0 0
161 1 3 -2.8885925386575184e-01 1.6335880456961134e+00 3.7065410082803196e+00 9.1650349194418146e-01 0 0 0
162 1 3 -2.4834473531712850e-01 2.6233998599800316e+01 7.1072164822523138e+00 4.9418058597990386e+00 0 0 0
163 1 3 -2.6283620722339857e-01 7.9934588810739822e+00 8.8162846338591727e+00 8.5192632331159643e+00 0 0 0
164 1 3 -2.4824385570998317e-01 8.4857553010889468e+00 3.2600294006731487e+00 -1.9447560588878376e-01 0 0 0
165 1 3 -2.8081071480302294e-01 2.2909421787244810e+01 1.0300644919385881e+01 -6.2382437274407054e-01 0 0 0
166 1 3 -2.6112205761733648e-01 3.3618935517562858e+00 2.1899884617726046e+00 7.9652622592455238e+00 0 0 0
167 1 3 -2.7191022260624503e-01 1.0300166245366318e+01 2.6872380755700296e+00 6.4780485118443938e+00 0 0 0
168 1 3 -2.4247122479766092e-01 6.0803352886119910e+00 8.9732692068268243e+00 1.9998788811680503e+00 0 0 0
169 1 3 -2.6928830538630077e-01 1.3606533266963899e+01 3.4003495497682055e+00 4.0474039880259198e+00 0 0 0
170 1 3 -2.1849541966404107e-01 1.2331943225232477e+01 6.9847302835231897e+00 9.1650450033872541e+00 0 0 0
171 1 3 -2.7788116995461309e-01 1.6899283713767346e+01 8.1055542440527262e+00 -6.2403351181523870e-01 0 0 1
172 1 3 -2.9534508741619847e-01 2.2610868940344691e+01 2.9588546416871502e+00 3.2259665598780858e+00 0 0 0
173 1 3 -2.4807706398631610e-01 1.3124243733424276e+01 8.4959463423299759e+00 1.9712011601789707e+00 0 0 0
174 1 3 -2.3024721666483941e-01 1.8052406440734543e+01 2.0879795515414696e+00 1.0352030418204125e+01 0 0 0
175 1 3 -2.5496241648792445e-01 2.2020167166296325e+01 4.1936893780281137e+00 1.1229261445841935e+01 0 0 0
176 1 3 -2.3274973557063214e-01 2.0401825443906386e+01 7.1855347821702704e+00 5.3438844912308054e+00 0 0 0
177 1 3 -2.8011942649723887e-01 4.7684207271255747e+00 2.9887950265930909e+00 1.1869704631628627e+01 0 0 -1
178 1 3 -2.8446008469659884e-01 2.6101022104021240e+01 8.0243110267584861e+00 7.3323603410294815e+00 0 0 0
179 1 3 -2.3127608782123960e-01 8.1693137708615957e+00 8.1327709120492457e+00 6.0006146128471203e+00 0 0 0
180 1 3 -2.8616937601509573e-01 7.8286091351409599e+00 3.5384876904177567e+00 2.3366040783301858e+00 0 0 0
181 1 3 -2.4320354506248187e-01 2.7971183564190177e+01 9.0838118853143861e+00 1.1492076012664166e+01 0 0 -1
182 1 3 -2.6471834428967622e-01 4.1330195488593535e+00 1.9344650578056439e+00 5.5308581056645716e+00 0 0 0
183 1 3 -2.5968977032182317e-01 9.6203083450169320e+00 2.7987476470528256e+00 8.9587209004073109e+00 0 0 0
184 1 3 -2.4664130311636265e-01 6.4233062351529950e+00 9.3749772138718974e+00 -4.9916517665478721e-01 0 0 0
185 1 3 -2.8662251128901106e-01 1.4353340185716222e+01 4.1987877519560968e+00 1.7029597114666295e+00 0 0 0
186 1 3 -2.4204699452172909e-01 1.3904225957845243e+01 8.4491128157575410e+00 7.6519504668839442e+00 0 0 0
187 1 3 -2.5819623266093916e-01 2.1834114113614024e+01 9.0740959052493722e+00 1.1300471585460032e+01 0 0 0
188 1 3 -2.5300182396153864e-01 2.0370456578228435e+01 1.7099822460095777e+00 3.8661002345814222e+00 0 0 0
189 1 3 -2.5018552905431923e-01 1.2131315841904843e+01 9.4946811771352984e+00 4.2149366965469692e+00 0 0 0
190 1 3 -2.4661097573234389e-01 1.5813505044846455e+01 3.3851312849443120e+00 1.0473584404511616e+01 0 0 0
191 1 3 -2.5170085480331084e-01 2.3839155810286925e+01 2.4554856536433252e+00 1.1840735510521659e+01 0 0 0
192 1 3 -2.7427506724708067e-01 1.9096317698914252e+01 8.2652752094703246e+00 3.3847050009776218e+00 0 0 0
193 1 3 5.1473874922284291e-01 3.8489255139064773e+00 5.7838985328433727e+00 -5.7754289136187553e-01 0 0 0
194 1 3 4.4231608986974763e-01 2.5175104728726577e+01 4.8525034285679522e+00 7.3132148018189014e+00 0 0 0
195 1 3 4.8614015060082816e-01 6.8456091065955125e+00 5.5225633140813208e+00 7.8922950694483642e+00 0 0 0
196 1 3 5.1571592546083134e-01 9.3643276468512990e+00 6.1851995905031503e+00 9.6928659969790498e-01 0 0 0
197 1 3 4.8547065669031531e-01 2.5355136549287593e+01 8.6667207437294600e+00 1.3474699848407115e+00 0 -1 0
198 1 3 5.0079862615744597e-01 4.8841090209829314e+00 1.0899435462590688e+01 7.7075460532534485e+00 0 0 0
199 1 3 4.7193411331982593e-01 1.0944118762615608e+01 1.1360500987228384e+01 8.1855412114596113e+00 0 0 0
200 1 3 4.6395857899007809e-01 4.6449771458146358e+00 2.5872490338361681e-01 8.8194848132925951e-01 0 0 0
201 1 3 4.4909250122864547e-01 1.6926243068954314e+01 5.4302193278459496e+00 4.2912132106755125e+00 0 0 0
202 1 3 4.9705769170102976e-01 1.5111604758997039e+01 8.0596844276944779e+00 1.0858389185439911e+01 0 0 0
203 1 3 4.4968677747905328e-01 1.9741040111728847e+01 6.9699112736455122e+00 9.6051150471825650e+00 0 0 0
204 1 3 4.7069928598315020e-01 2.1234241061635984e+01 4.2174659653920523e+00 5.9776797435575624e+00 0 0 0
205 1 3 5.0603909233523292e-01 1.2057230532318233e+01 3.4574294027560304e-01 1.4836555532221158e+00 0 0 0
206 1 3 5.3372678233727677e-01 1.6115066969913034e+01 1.8240453978220637e+00 7.5096416192486828e+00 0 1 0
207 1 3 5.1053069773908288e-01 2.2161654634701328e+01 1.7661664495331526e+00 8.9648413451644213e+00 0 1 0
208 1 3 4.9931041890659911e-01 1.8282644322274052e+01 9.9448685331676039e+00 6.5352079891078168e+00 0 -1 0
209 1 3 5.0784402819909236e-01 2.5813358690438839e+01 4.9990865565712452e+00 1.2086004654622360e+00 -1 0 0
210 1 3 5.2019837226043963e-01 2.5844300058411345e+00 6.3497926138025536e+00 4.6161494425242617e+00 1 0 0
211 1 3 5.1832002456628268e-01 9.1243566392704309e+00 8.2246886572764843e+00 9.3429218801870224e+00 0 0 -1
212 1 3 4.8896970350760333e-01 7.6816605285662343e+00 4.2185211557324092e+00 -1.0384679390299596e+00 0 0 1
213 1 3 4.4566964260521236e-01 2.3674255513600329e+01 3.9687474266533102e-01 -2.0061782307956966e-02 0 1 1
214 1 3 5.0863372416134855e-01 2.7306343318805968e+01 1.1400414263771717e+00 8.4347886066889544e+00 -1 0 -1
215 1 3 5.5238831546775824e-01 9.5035389995152784e+00 1.5800666149222868e+00 5.7888713004520200e+00 0 0 0
216 1 3 4.6138794215212459e-01 6.9320082869911825e+00 1.0011410930956053e+01 2.7977898064603730e+00 0 0 0
217 1 3 5.0078507540796335e-01 1.2589510185871301e+01 4.4694384131564497e+00 4.4133542778776143e+00 0 0 0
218 1 3 5.0764707163149347e-01 1.2955940135611783e+01 5.6114716917138567e+00 9.3480659657171561e+00 0 0 0
219 1 3 4.8305495820050776e-01 1.7167915234890611e+01 6.6262026664757876e+00 -4.4384966997169950e-01 0 0 0
220 1 3 5.2360077843367359e-01 2.2466958488278024e+01 4.3416898637508927e+00 2.6241462738625509e+00 0 0 1
221 1 3 4.7002345685416069e-01 1.4488422720690874e+01 9.1501685909058352e+00 1.8114028825751762e+00 0 0 1
222 1 3 4.6095779616794702e-01 1.7944092864825443e+01 5.8728510538270817e-01 1.0590329861816253e+01 0 0 -1
223 1 3 4.8066690601566653e-01 2.0657094008339083e+01 3.5341694083421267e+00 1.1311297091346532e+01 0 0 0
224 1 3 5.0389175220389726e-01 2.1634180232620267e+01 7.9943754416317789e+00 5.6879622737494211e+00 0 0 0
225 1 3 4.7108178216975272e-01 3.7681097571667155e+00 3.7626045209587757e+00 1.1023579469681865e+01 1 0 -1
226 1 3 5.1377386840598605e-01 2.7264178331648161e+01 7.5956498954420972e+00 8.2232069250509134e+00 -1 0 0
227 1 3 5.0678837382334518e-01 9.3524890949864314e+00 7.2573142390575489e+00 5.6396223081254035e+00 0 0 0
228 1 3 5.0068660667233578e-01 6.6490939098775952e+00 4.5032876479423258e+00 2.5168966393501533e+00 0 0 0
229 1 3 5.2731635478120187e-01 4.3276274385039493e+00 9.8925788629347373e+00 1.1477726325645913e+01 0 0 -1
230 1 3 5.2428443579441975e-01 3.3568632484778753e+00 8.3980743718300221e-01 4.8137034239629504e+00 1 0 0
231 1 3 4.7452639715140360e-01 8.5615480965445361e+00 1.7328689531020127e+00 9.2810867378791766e+00 0 0 0
232 1 3 5.0864974367899285e-01 7.4053617740388100e+00 1.0495307783978536e+01 -8.3879325302361751e-01 0 0 0
233 1 3 4.7857123196947909e-01 1.3348084308866541e+01 5.0837494253652489e+00 9.6576965532569536e-01 0 0 0
234 1 3 4.7285704101221276e-01 1.5161126294439349e+01 7.6610390000260677e+00 7.2027093213765134e+00 0 0 0
235 1 3 5.0242513146885270e-01 2.2879777108788709e+01 8.0125159496181730e+00 1.0995780371032652e+01 0 0 0
236 1 3 5.0349769295419888e-01 1.9185721222533722e+01 2.5768211809276975e+00 3.4836900879637192e+00 0 0 0
237 1 3 4.7241493291204667e-01 1.3114239752159722e+01 1.0533571278985946e+01 4.7420420675911128e+00 0 0 0
238 1 3 5.1202989154915179e-01 1.4647817766286105e+01 2.4009048557329815e+00 1.0587002934464424e+01 0 0 0
239 1 3 5.0082238965849946e-01 2.0222976702664507e+01 1.2340309208250868e+00 -1.0014367394746526e+00 0 0 1
240 1 3 4.9140926888683401e-01 1.9837588825461921e+01 9.4171030084192004e+00 2.6670915724213957e+00 0 0 0
241 1 4 -3.8601379226518312e-01 3.9192387350852171e+00 6.5183852077776550e+00 4.7368344617737268e-01 0 0 0
242 1 4 -4.0747564393116781e-01 2.4709022665839740e+01 3.6646902763224181e+00 7.0444802174729979e+00 0 0 0
243 1 4 -3.8753560876155885e-01 7.6052332095227211e+00 5.3141372977097188e+00 8.9294557390778895e+00 0 0 0
244 1 4 -4.0561840600732324e-01 9.4935054850867608e+00 7.0801528493602426e+00 1.8990145342695834e+00 0 0 0
245 1 4 -3.6694092219620905e-01 1.6488793649612272e+00 8.8861434148690570e+00 9.7849128264164431e-01 1 -1 0
246 1 4 -3.6888207341647594e-01 4.2324557616105665e+00 1.0500435506611808e+01 8.7622640167998398e+00 0 0 0
247 1 4 -4.3493647591647994e-01 1.1146278030840854e+01 1.0749933768161696e+01 7.0462851471119823e+00 0 0 0
248 1 4 -4.0388802940380120e-01 4.6571608416639565e+00 1.0867590562671592e+00 -1.1129370053162568e-01 0 0 0
249 1 4 -3.4511398398561560e-01 1.7223809975916470e+01 5.3702949133083377e+00 5.5474570847373776e+00 0 0 0
250 1 4 -3.3710008882020148e-01 1.5966470690275498e+01 7.4123665361945674e+00 1.0089625333653160e+01 0 0 0
251 1 4 -3.5895373833236277e-01 1.8725758839250176e+01 6.4044636931802108e+00 9.0016244759369641e+00 0 0 0
252 1 4 -3.6893781233460443e-01 2.1789956107501638e+01 5.0580783855834426e+00 6.7844026606463039e+00 0 0 0
253 1 4 -3.9856987124288495e-01 1.2824279888409357e+01 4.9462483962585668e-01 4.5637160754064388e-01 0 0 0
254 1 4 -4.2488309185198286e-01 1.5242773856276880e+01 2.1416948980245332e+00 6.6009313873026683e+00 0 1 0
255 1 4 -3.8353848712896998e-01 2.2648625907867100e+01 5.9990693332208078e-01 8.6921054736409058e+00 0 1 0
256 1 4 -3.8044608996356744e-01 1.7949199741814979e+01 1.1022105115628058e+01 5.9253519270078874e+00 0 -1 0
257 1 4 -3.7614694464142345e-01 6.9305629838646929e+00 6.2723856721982365e+00 1.1742514659549876e+01 0 0 -1
258 1 4 -3.7720192634898964e-01 2.5866020687163537e+01 4.9812604285722211e+00 8.3872149020346267e+00 0 0 0
259 1 4 -4.4406429172612238e-01 6.3971428087936939e+00 4.4995884380469064e+00 7.2541052113725701e+00 0 0 0
260 1 4 -4.3570240696777884e-01 9.0825672702072637e+00 6.5150685211219255e+00 -2.5558019415177569e-01 0 0 0
261 1 4 -3.1615262342915595e-01 2.5034377737685411e+01 8.8535750683250747e+00 2.6094292656688571e+00 0 -1 0
262 1 4 -4.2415124458090414e-01 5.4016063273891959e+00 1.0060661269433140e+01 6.8595073998785736e+00 0 0 0
263 1 4 -4.0223521863960598e-01 1.0669241946025902e+01 1.0745823675068937e+01 9.2667914616041145e+00 0 0 0
264 1 4 -3.8055898600048632e-01 4.6962772597202047e+00 6.8870113587352710e-01 2.1178738220217963e+00 0 0 0
265 1 4 -4.1063688520521696e-01 1.7823106980210500e+01 5.6338630227632160e+00 3.3849690660345173e+00 0 0 0
266 1 4 -4.0324977041142857e-01 1.2163963755435221e+01 8.2377646738800188e+00 -1.3111046454967328e+00 0 0 1
267 1 4 -3.6519289432274227e-01 2.0915246913561603e+01 6.4745076573610989e+00 9.4882511184459570e+00 0 0 0
268 1 4 -3.7033648354499904e-01 2.0122653966126236e+01 4.4408273166531940e+00 5.4232329590715977e+00 0 0 0
269 1 4 -4.6808827334408076e-01 1.1438706627223567e+01 1.3274109517968482e+00 2.0837723650775679e+00 0 0 0
270 1 4 -3.5282150884132274e-01 1.6316770249276104e+01 6.1246431597080764e-01 7.9254579739739555e+00 0 1 0
271 1 4 -4.5331504139278228e-01 2.0981517543575926e+01 2.0342126754719017e+00 8.5762174101984563e+00 0 1 0
272 1 4 -3.5844702431253767e-01 1.8721774379212569e+01 9.9985876392455246e+00 7.7389100701855718e+00 0 -1 0
273 1 4 -4.0494739242112054e-01 2.5373546152911270e+01 5.8012929701266822e+00 2.8715990815836756e-01 0 0 0
274 1 4 -4.2140827250623508e-01 2.6357845180884296e+00 5.0897682458786946e+00 4.9820060861659687e+00 0 0 0
275 1 4 -3.8245985285859435e-01 9.1473544764912855e+00 8.5018988310222383e+00 1.0607427148469075e+01 0 0 -1
276 1 4 -3.7647599453315450e-01 6.4180148362483820e+00 4.3337860298087083e+00 -7.4951006228137185e-01 0 0 1
277 1 4 -4.1492217617720134e-01 2.4292826508783644e+01 4.9416816052402723e-01 1.1102023514275792e+00 -1 1 1
278 1 4 -3.4827649342351052e-01 2.6992203621246961e+01 2.0475791030423635e-01 7.6019811857336137e+00 0 0 -1