ITEM: TIMESTEP
0
ITEM: NUMBER OF ATOMS
448
ITEM: BOX BOUNDS xy xz yz pp pp pp
-2.4186686450000000e-01 1.3879200000000001e+01 8.1284706647000001e-16
0.0000000000000000e+00 1.3274800000000003e+01 -2.4186686450000000e-01
0.0000000000000000e+00 2.2679910358299999e+01 1.4036330231000001e-15
ITEM: ATOMS id type xs ys zs
1 1 0.343849 0.120487 0.264086
2 2 0.244299 0.126599 0.255313
3 3 0.223367 0.155252 0.212124
4 3 0.198988 0.0964382 0.289641
5 2 0.403633 0.150057 0.218601
6 3 0.483015 0.145994 0.230146
7 3 0.366392 0.175471 0.179045
8 1 0.382043 0.0859719 0.317643
9 2 0.317737 0.0642992 0.37014
10 4 0.3504 0.0817745 0.421756
11 4 0.233001 0.028991 0.358887
12 2 0.488843 0.0720495 0.32739
13 4 0.5128 0.0316614 0.376771
14 4 0.546002 0.104117 0.28786
15 1 0.406151 0.370487 0.485914
16 2 0.505701 0.376599 0.494687
17 3 0.526633 0.405252 0.537876
18 3 0.551012 0.346438 0.460359
19 2 0.346367 0.400057 0.531399
20 3 0.266985 0.395994 0.519854
21 3 0.383608 0.425471 0.570955
22 1 0.367957 0.335972 0.432357
23 2 0.432263 0.314299 0.37986
24 4 0.3996 0.331775 0.328244
25 4 0.516999 0.278991 0.391113
26 2 0.261157 0.32205 0.42261
27 4 0.2372 0.281661 0.373229
28 4 0.203998 0.354117 0.46214
29 1 0.156151 0.379513 0.235914
30 2 0.255701 0.373401 0.244687
31 3 0.276633 0.344748 0.287876
32 3 0.301012 0.403562 0.210359
33 2 0.0963675 0.349943 0.281399
34 3 0.0169845 0.354006 0.269854
35 3 0.133608 0.324529 0.320955
36 1 0.117957 0.414028 0.182356
37 2 0.182263 0.435701 0.129859
38 4 0.149601 0.418225 0.0782441
39 4 0.266998 0.471009 0.141113
40 2 0.0111571 0.42795 0.17261
41 4 0.9872 0.468339 0.123229
42 4 0.953998 0.395883 0.21214
43 1 0.0938494 0.129513 0.0140864
44 2 0.994299 0.123401 0.00531324
45 3 0.973367 0.0947484 0.962124
46 3 0.948988 0.153562 0.0396406
47 2 0.153633 0.0999432 0.968601
48 3 0.233015 0.104006 0.980146
49 3 0.116392 0.0745287 0.929045
50 1 0.132043 0.164028 0.0676434
51 2 0.0677372 0.185701 0.12014
52 4 0.1004 0.168225 0.171756
53 4 0.983001 0.221009 0.108887
54 2 0.238843 0.17795 0.0773904
55 4 0.2628 0.218339 0.126771
56 4 0.296002 0.145883 0.0378597
57 1 0.843849 0.120487 0.264086
58 2 0.744299 0.126599 0.255313
59 3 0.723367 0.155252 0.212124
60 3 0.698988 0.0964382 0.289641
61 2 0.903633 0.150057 0.218601
62 3 0.983015 0.145994 0.230146
63 3 0.866392 0.175471 0.179045
64 1 0.882043 0.0859719 0.317643
65 2 0.817737 0.0642992 0.37014
66 4 0.8504 0.0817745 0.421756
67 4 0.733001 0.0289911 0.358887
68 2 0.988843 0.0720495 0.32739
69 4 0.0127999 0.0316614 0.376771
70 4 0.0460017 0.104117 0.28786
71 1 0.906151 0.370487 0.485914
72 2 0.00570117 0.376599 0.494687
73 3 0.0266328 0.405252 0.537876
74 3 0.0510118 0.346438 0.460359
75 2 0.846367 0.400057 0.531399
76 3 0.766985 0.395994 0.519854
77 3 0.883608 0.425471 0.570955
78 1 0.867957 0.335972 0.432357
79 2 0.932263 0.314299 0.37986
80 4 0.8996 0.331775 0.328244
81 4 0.0169986 0.278991 0.391113
82 2 0.761157 0.32205 0.42261
83 4 0.7372 0.281661 0.373229
84 4 0.703998 0.354117 0.46214
85 1 0.656151 0.379513 0.235914
86 2 0.755701 0.373401 0.244687
87 3 0.776633 0.344748 0.287876
88 3 0.801012 0.403562 0.210359
89 2 0.596367 0.349943 0.281399
90 3 0.516985 0.354006 0.269854
91 3 0.633608 0.324529 0.320955
92 1 0.617957 0.414028 0.182357
93 2 0.682263 0.435701 0.12986
94 4 0.6496 0.418226 0.078244
95 4 0.766999 0.471009 0.141113
96 2 0.511157 0.427951 0.17261
97 4 0.4872 0.468339 0.123228
98 4 0.453998 0.395883 0.212141
99 1 0.593849 0.129513 0.0140865
100 2 0.494299 0.123401 0.00531324
101 3 0.473367 0.0947484 0.962124
102 3 0.448988 0.153562 0.0396406
103 2 0.653633 0.0999432 0.968601
104 3 0.733015 0.104006 0.980146
105 3 0.616392 0.0745287 0.929045
106 1 0.632043 0.164028 0.0676435
107 2 0.567737 0.185701 0.12014
108 4 0.6004 0.168225 0.171756
109 4 0.483001 0.221009 0.108887
110 2 0.738843 0.17795 0.0773904
111 4 0.7628 0.218339 0.126771
112 4 0.796002 0.145883 0.0378597
113 1 0.343849 0.620487 0.264086
114 2 0.244299 0.626599 0.255313
115 3 0.223367 0.655252 0.212124
116 3 0.198988 0.596438 0.289641
117 2 0.403633 0.650057 0.218601
118 3 0.483015 0.645994 0.230146
119 3 0.366392 0.675471 0.179045
120 1 0.382043 0.585972 0.317643
121 2 0.317737 0.564299 0.37014
122 4 0.3504 0.581775 0.421756
123 4 0.233001 0.528991 0.358887
124 2 0.488843 0.57205 0.32739
125 4 0.5128 0.531661 0.376771
126 4 0.546002 0.604117 0.28786
127 1 0.406151 0.870487 0.485914
128 2 0.505701 0.876599 0.494687
129 3 0.526633 0.905252 0.537876
130 3 0.551012 0.846438 0.460359
131 2 0.346367 0.900057 0.531399
132 3 0.266985 0.895994 0.519854
133 3 0.383608 0.925471 0.570955
134 1 0.367957 0.835972 0.432357
135 2 0.432263 0.814299 0.37986
136 4 0.3996 0.831775 0.328244
137 4 0.516999 0.778991 0.391113
138 2 0.261157 0.82205 0.42261
139 4 0.2372 0.781661 0.373229
140 4 0.203998 0.854117 0.46214
141 1 0.156151 0.879513 0.235914
142 2 0.255701 0.873401 0.244687
143 3 0.276633 0.844748 0.287876
144 3 0.301012 0.903562 0.210359
145 2 0.0963675 0.849943 0.281399
146 3 0.0169845 0.854006 0.269854
147 3 0.133608 0.824529 0.320955
148 1 0.117957 0.914028 0.182356
149 2 0.182263 0.935701 0.129859
150 4 0.149601 0.918225 0.0782441
151 4 0.266998 0.971009 0.141113
152 2 0.0111571 0.92795 0.17261
153 4 0.9872 0.968339 0.123229
154 4 0.953998 0.895883 0.21214
155 1 0.0938494 0.629513 0.0140864
156 2 0.994299 0.623401 0.00531324
157 3 0.973367 0.594748 0.962124
158 3 0.948988 0.653562 0.0396406
159 2 0.153633 0.599943 0.968601
160 3 0.233015 0.604006 0.980146
161 3 0.116392 0.574529 0.929045
162 1 0.132043 0.664028 0.0676434
163 2 0.0677372 0.685701 0.12014
164 4 0.1004 0.668225 0.171756
165 4 0.983001 0.721009 0.108887
166 2 0.238843 0.67795 0.0773904
167 4 0.2628 0.718339 0.126771
168 4 0.296002 0.645883 0.0378596
169 1 0.843849 0.620487 0.264086
170 2 0.744299 0.626599 0.255313
171 3 0.723367 0.655252 0.212124
172 3 0.698988 0.596438 0.289641
173 2 0.903633 0.650057 0.218601
174 3 0.983015 0.645994 0.230146
175 3 0.866392 0.675471 0.179045
176 1 0.882043 0.585972 0.317643
177 2 0.817737 0.564299 0.37014
178 4 0.8504 0.581774 0.421756
179 4 0.733001 0.528991 0.358887
180 2 0.988843 0.57205 0.32739
181 4 0.0127999 0.531661 0.376771
182 4 0.0460017 0.604117 0.28786
183 1 0.906151 0.870487 0.485914
184 2 0.00570117 0.876599 0.494687
185 3 0.0266328 0.905252 0.537876
186 3 0.0510118 0.846438 0.460359
187 2 0.846367 0.900057 0.531399
188 3 0.766985 0.895994 0.519854
189 3 0.883608 0.925471 0.570955
190 1 0.867957 0.835972 0.432357
191 2 0.932263 0.814299 0.37986
192 4 0.8996 0.831774 0.328244
193 4 0.0169986 0.778991 0.391113
194 2 0.761157 0.82205 0.42261
195 4 0.7372 0.781661 0.373229
196 4 0.703998 0.854117 0.46214
197 1 0.656151 0.879513 0.235914
198 2 0.755701 0.873401 0.244687
199 3 0.776633 0.844748 0.287876
200 3 0.801012 0.903562 0.210359
201 2 0.596367 0.849943 0.281399
202 3 0.516985 0.854006 0.269854
203 3 0.633608 0.824529 0.320955
204 1 0.617957 0.914028 0.182357
205 2 0.682263 0.935701 0.12986
206 4 0.6496 0.918226 0.078244
207 4 0.766999 0.971009 0.141113
208 2 0.511157 0.927951 0.17261
209 4 0.4872 0.968339 0.123228
210 4 0.453998 0.895883 0.212141
211 1 0.593849 0.629513 0.0140865
212 2 0.494299 0.623401 0.00531324
213 3 0.473367 0.594748 0.962124
214 3 0.448988 0.653562 0.0396406
215 2 0.653633 0.599943 0.968601
216 3 0.733015 0.604006 0.980146
217 3 0.616392 0.574529 0.929045
218 1 0.632043 0.664028 0.0676435
219 2 0.567737 0.685701 0.12014
220 4 0.6004 0.668226 0.171756
221 4 0.483001 0.721009 0.108887
222 2 0.738843 0.67795 0.0773904
223 4 0.7628 0.718339 0.126771
224 4 0.796002 0.645883 0.0378597
225 1 0.343849 0.120487 0.764086
226 2 0.244299 0.126599 0.755313
227 3 0.223367 0.155252 0.712124
228 3 0.198988 0.0964382 0.789641
229 2 0.403633 0.150057 0.718601
230 3 0.483015 0.145994 0.730146
231 3 0.366392 0.175471 0.679045
232 1 0.382043 0.0859718 0.817643
233 2 0.317737 0.0642992 0.87014
234 4 0.3504 0.0817745 0.921756
235 4 0.233001 0.0289912 0.858887
236 2 0.488843 0.0720495 0.82739
237 4 0.5128 0.0316614 0.876771
238 4 0.546002 0.104117 0.78786
239 1 0.406173 0.370514 0.985959
240 2 0.505706 0.376597 0.994693
241 3 0.52663 0.405252 0.0378767
242 3 0.551004 0.346444 0.960362
243 2 0.346364 0.400063 0.0314072
244 3 0.267 0.395995 0.0198568
245 3 0.383609 0.425472 0.0709548
246 1 0.368023 0.335986 0.932383
247 2 0.432302 0.314284 0.879861
248 4 0.399561 0.331798 0.828174
249 4 0.517082 0.278953 0.891116
250 2 0.261133 0.322055 0.922624
251 4 0.237157 0.281575 0.873137
252 4 0.203893 0.35417 0.962208
253 1 0.156151 0.379513 0.735913
254 2 0.255702 0.373401 0.744687
255 3 0.276635 0.344749 0.787876
256 3 0.301012 0.403562 0.710359
257 2 0.0963661 0.349943 0.781399
258 3 0.0169833 0.354006 0.769854
259 3 0.133599 0.324531 0.820951
260 1 0.117957 0.414028 0.682357
261 2 0.182263 0.435701 0.629859
262 4 0.1496 0.418226 0.578244
263 4 0.266998 0.471009 0.641112
264 2 0.0111567 0.427951 0.672609
265 4 0.9872 0.468339 0.623229
266 4 0.953998 0.395883 0.71214
267 1 0.0938494 0.129513 0.514086
268 2 0.994299 0.123401 0.505313
269 3 0.973367 0.0947484 0.462124
270 3 0.948988 0.153562 0.539641
271 2 0.153633 0.0999432 0.468601
272 3 0.233015 0.104006 0.480146
273 3 0.116392 0.0745287 0.429045
274 1 0.132043 0.164028 0.567643
275 2 0.0677372 0.185701 0.62014
276 4 0.1004 0.168225 0.671756
277 4 0.983001 0.221009 0.608887
278 2 0.238843 0.17795 0.57739
279 4 0.2628 0.218339 0.626771
280 4 0.296002 0.145883 0.53786
281 1 0.843849 0.120487 0.764086
282 2 0.744299 0.126599 0.755313
283 3 0.723367 0.155252 0.712124
284 3 0.698988 0.0964382 0.789641
285 2 0.903633 0.150057 0.718601
286 3 0.983015 0.145994 0.730146
287 3 0.866392 0.175471 0.679045
288 1 0.882043 0.0859719 0.817643
289 2 0.817737 0.0642992 0.87014
290 4 0.8504 0.0817745 0.921756
291 4 0.733001 0.0289911 0.858887
292 2 0.988843 0.0720495 0.82739
293 4 0.0127999 0.0316614 0.876771
294 4 0.0460017 0.104117 0.78786
295 1 0.906151 0.370487 0.985914
296 2 0.00570125 0.376599 0.994687
297 3 0.0266328 0.405252 0.037876
298 3 0.0510115 0.346438 0.960359
299 2 0.846367 0.400057 0.0313991
300 3 0.766985 0.395994 0.0198538
301 3 0.883608 0.425471 0.0709546
302 1 0.867957 0.335972 0.932357
303 2 0.932263 0.314299 0.87986
304 4 0.8996 0.331774 0.828244
305 4 0.0169983 0.278991 0.891113
306 2 0.761157 0.32205 0.92261
307 4 0.7372 0.281661 0.873229
308 4 0.703998 0.354117 0.96214
309 1 0.656151 0.379513 0.735913
310 2 0.755701 0.373401 0.744687
311 3 0.776633 0.344748 0.787876
312 3 0.801012 0.403562 0.710359
313 2 0.596368 0.349943 0.781399
314 3 0.516985 0.354006 0.769853
315 3 0.633608 0.324529 0.820955
316 1 0.617957 0.414028 0.682357
317 2 0.682263 0.435701 0.62986
318 4 0.6496 0.418226 0.578244
319 4 0.766999 0.471009 0.641113
320 2 0.511157 0.427951 0.67261
321 4 0.4872 0.468339 0.623229
322 4 0.453998 0.395883 0.71214
323 1 0.593849 0.129513 0.514086
324 2 0.494299 0.123401 0.505313
325 3 0.473367 0.0947484 0.462124
326 3 0.448988 0.153562 0.539641
327 2 0.653633 0.0999432 0.468601
328 3 0.733015 0.104006 0.480146
329 3 0.616392 0.0745287 0.429045
330 1 0.632043 0.164028 0.567643
331 2 0.567737 0.185701 0.62014
332 4 0.6004 0.168225 0.671756
333 4 0.483001 0.221009 0.608887
334 2 0.738843 0.17795 0.57739
335 4 0.7628 0.218339 0.626771
336 4 0.796002 0.145883 0.53786
337 1 0.343849 0.620487 0.764086
338 2 0.244299 0.626599 0.755313
339 3 0.223367 0.655252 0.712124
340 3 0.198988 0.596438 0.789641
341 2 0.403633 0.650057 0.718601
342 3 0.483015 0.645994 0.730146
343 3 0.366392 0.675471 0.679045
344 1 0.382043 0.585972 0.817643
345 2 0.317737 0.564299 0.87014
346 4 0.3504 0.581775 0.921756
347 4 0.233001 0.528991 0.858887
348 2 0.488843 0.57205 0.82739
349 4 0.5128 0.531661 0.876771
350 4 0.546002 0.604117 0.78786
351 1 0.406173 0.870514 0.985959
352 2 0.505706 0.876597 0.994693
353 3 0.52663 0.905252 0.0378767
354 3 0.551004 0.846444 0.960362
355 2 0.346364 0.900063 0.0314072
356 3 0.267 0.895995 0.0198568
357 3 0.383609 0.925472 0.0709548
358 1 0.368023 0.835986 0.932383
359 2 0.432302 0.814284 0.879861
360 4 0.399561 0.831798 0.828173
361 4 0.517082 0.778953 0.891116
362 2 0.261133 0.822055 0.922624
363 4 0.237157 0.781575 0.873137
364 4 0.203893 0.85417 0.962208
365 1 0.156151 0.879513 0.735913
366 2 0.255702 0.873401 0.744687
367 3 0.276635 0.844749 0.787876
368 3 0.301012 0.903562 0.710359
369 2 0.0963661 0.849943 0.781399
370 3 0.0169833 0.854006 0.769854
371 3 0.133599 0.824531 0.820951
372 1 0.117957 0.914028 0.682357
373 2 0.182263 0.935701 0.629859
374 4 0.1496 0.918226 0.578244
375 4 0.266998 0.971009 0.641112
376 2 0.0111567 0.927951 0.672609
377 4 0.9872 0.968339 0.623229
378 4 0.953998 0.895883 0.71214
379 1 0.0938494 0.629513 0.514086
380 2 0.994299 0.623401 0.505313
381 3 0.973367 0.594748 0.462124
382 3 0.948988 0.653562 0.539641
383 2 0.153633 0.599943 0.468601
384 3 0.233015 0.604006 0.480146
385 3 0.116392 0.574529 0.429045
386 1 0.132043 0.664028 0.567643
387 2 0.0677372 0.685701 0.62014
388 4 0.1004 0.668225 0.671756
389 4 0.983001 0.721009 0.608887
390 2 0.238843 0.67795 0.57739
391 4 0.2628 0.718339 0.626771
392 4 0.296002 0.645883 0.53786
393 1 0.843849 0.620487 0.764086
394 2 0.744299 0.626599 0.755313
395 3 0.723367 0.655252 0.712124
396 3 0.698988 0.596438 0.789641
397 2 0.903633 0.650057 0.718601
398 3 0.983015 0.645994 0.730146
399 3 0.866392 0.675471 0.679045
400 1 0.882043 0.585972 0.817643
401 2 0.817737 0.564299 0.87014
402 4 0.8504 0.581774 0.921756
403 4 0.733001 0.528991 0.858887
404 2 0.988843 0.57205 0.82739
405 4 0.0127999 0.531661 0.876771
406 4 0.0460017 0.604117 0.78786
407 1 0.906151 0.870487 0.985914
408 2 0.00570125 0.876599 0.994687
409 3 0.0266328 0.905252 0.037876
410 3 0.0510115 0.846438 0.960359
411 2 0.846367 0.900057 0.0313991
412 3 0.766985 0.895994 0.0198538
413 3 0.883608 0.925471 0.0709546
414 1 0.867957 0.835972 0.932357
415 2 0.932263 0.814299 0.87986
416 4 0.8996 0.831774 0.828244
417 4 0.0169983 0.778991 0.891113
418 2 0.761157 0.82205 0.92261
419 4 0.7372 0.781661 0.873229
420 4 0.703998 0.854117 0.96214
421 1 0.656151 0.879513 0.735913
422 2 0.755701 0.873401 0.744687
423 3 0.776633 0.844748 0.787876
424 3 0.801012 0.903562 0.710359
425 2 0.596368 0.849943 0.781399
426 3 0.516985 0.854006 0.769853
427 3 0.633608 0.824529 0.820955
428 1 0.617957 0.914028 0.682357
429 2 0.682263 0.935701 0.62986
430 4 0.6496 0.918226 0.578244
431 4 0.766999 0.971009 0.641113
432 2 0.511157 0.927951 0.67261
433 4 0.4872 0.968339 0.623229
434 4 0.453998 0.895883 0.71214
435 1 0.593849 0.629513 0.514086
436 2 0.494299 0.623401 0.505313
437 3 0.473367 0.594748 0.462124
438 3 0.448988 0.653562 0.539641
439 2 0.653633 0.599943 0.468601
440 3 0.733015 0.604006 0.480146
441 3 0.616392 0.574529 0.429045
442 1 0.632043 0.664028 0.567643
443 2 0.567737 0.685701 0.62014
444 4 0.6004 0.668225 0.671756
445 4 0.483001 0.721009 0.608887
446 2 0.738843 0.67795 0.57739
447 4 0.7628 0.718339 0.626771
448 4 0.796002 0.645883 0.53786
ITEM: TIMESTEP
1000
ITEM: NUMBER OF ATOMS
448
ITEM: BOX BOUNDS xy xz yz pp pp pp
7.5925781073523241e-03 1.3779149964040565e+01 -2.0039250676772494e-02
-6.9723757116342866e-01 1.3613421343186836e+01 -7.2418207175234645e-02
2.0378199144678177e-01 2.2476128366853160e+01 -3.5861622797661036e-01
ITEM: ATOMS id type xs ys zs
1 1 0.328205 0.113365 0.250067
2 2 0.228775 0.102409 0.241279
3 3 0.203617 0.130663 0.196006
4 3 0.187251 0.0895145 0.287336
5 2 0.386924 0.138541 0.200428
6 3 0.464497 0.137129 0.211876
7 3 0.350051 0.103889 0.163828
8 1 0.362997 0.107432 0.310588
9 2 0.297996 0.100262 0.363505
10 4 0.340609 0.111072 0.413889
11 4 0.204386 0.0892306 0.357821
12 2 0.472143 0.0929626 0.317965
13 4 0.497392 0.0711101 0.370996
14 4 0.529543 0.0979747 0.271981
15 1 0.418608 0.380082 0.481837
16 2 0.525767 0.369017 0.488354
17 3 0.503241 0.313699 0.520387
18 3 0.56244 0.342961 0.445917
19 2 0.36129 0.407569 0.53092
20 3 0.281482 0.417447 0.517631
21 3 0.408813 0.405976 0.575658
22 1 0.369962 0.361179 0.424637
23 2 0.428656 0.35016 0.371837
24 4 0.38356 0.350841 0.32074
25 4 0.524063 0.338163 0.375305
26 2 0.260818 0.358385 0.418979
27 4 0.222908 0.321799 0.370779
28 4 0.203509 0.395001 0.460151
29 1 0.13875 0.386331 0.230946
30 2 0.237983 0.400767 0.246492
31 3 0.26123 0.361606 0.289044
32 3 0.282136 0.417679 0.203869
33 2 0.0751104 0.354585 0.271629
34 3 0.990168 0.354801 0.245927
35 3 0.114562 0.342027 0.313696
36 1 0.107502 0.405496 0.170351
37 2 0.178418 0.404803 0.120889
38 4 0.14736 0.402248 0.0653975
39 4 0.270518 0.411702 0.132227
40 2 0.0015048 0.434186 0.162448
41 4 0.991429 0.483668 0.117103
42 4 0.93365 0.409707 0.201126
43 1 0.0828379 0.099937 0.00466836
44 2 0.98614 0.111121 0.989334
45 3 0.97961 0.0819146 0.941538
46 3 0.947127 0.158261 0.0303549
47 2 0.145329 0.0491712 0.968713
48 3 0.224861 0.0632427 0.986473
49 3 0.111767 0.0362203 0.925536
50 1 0.12369 0.137652 0.061486
51 2 0.0569837 0.151439 0.113125
52 4 0.0919222 0.150913 0.165473
53 4 0.968056 0.175561 0.0981823
54 2 0.227074 0.16907 0.0661424
55 4 0.252912 0.224348 0.108735
56 4 0.284022 0.143632 0.0213493
57 1 0.830662 0.121007 0.255355
58 2 0.727305 0.115569 0.251785
59 3 0.704326 0.112635 0.205433
60 3 0.696182 0.0849565 0.29446
61 2 0.89225 0.154826 0.211847
62 3 0.973751 0.151856 0.224935
63 3 0.851702 0.168589 0.170992
64 1 0.872863 0.104933 0.312738
65 2 0.813759 0.100559 0.370479
66 4 0.858811 0.104221 0.420178
67 4 0.719374 0.0886874 0.367007
68 2 0.977775 0.0871706 0.322469
69 4 0.00402247 0.0501664 0.372239
70 4 0.0387808 0.104095 0.279217
71 1 0.912604 0.390697 0.487017
72 2 0.0075014 0.359578 0.500998
73 3 0.0291175 0.411158 0.535001
74 3 0.0483258 0.335945 0.456999
75 2 0.857434 0.444354 0.530111
76 3 0.784944 0.456353 0.506869
77 3 0.887157 0.416067 0.569876
78 1 0.872194 0.360588 0.431562
79 2 0.932879 0.338796 0.377913
80 4 0.892371 0.326178 0.325898
81 4 0.0271176 0.332529 0.384939
82 2 0.761806 0.345214 0.426713
83 4 0.737653 0.278054 0.391049
84 4 0.708914 0.397491 0.462269
85 1 0.654611 0.35407 0.238334
86 2 0.755962 0.354281 0.252853
87 3 0.767576 0.329543 0.300074
88 3 0.794023 0.395773 0.219014
89 2 0.58813 0.307866 0.275859
90 3 0.508675 0.319987 0.263477
91 3 0.637637 0.302874 0.317452
92 1 0.618721 0.391963 0.184202
93 2 0.687352 0.398635 0.133066
94 4 0.649694 0.397175 0.0803519
95 4 0.779604 0.403648 0.144071
96 2 0.510597 0.395537 0.168645
97 4 0.484484 0.431978 0.117874
98 4 0.451487 0.355552 0.204728
99 1 0.584364 0.115721 0.996622
100 2 0.487867 0.129315 0.982793
101 3 0.458872 0.0909116 0.93475
102 3 0.454885 0.147452 0.0300869
103 2 0.650565 0.0952725 0.949917
104 3 0.735105 0.103854 0.965764
105 3 0.612254 0.0454225 0.922458
106 1 0.624489 0.132397 0.055451
107 2 0.561303 0.122689 0.108467
108 4 0.598195 0.109056 0.160167
109 4 0.465349 0.1216 0.100153
110 2 0.731153 0.142683 0.0679536
111 4 0.757311 0.162142 0.12118
112 4 0.794254 0.122677 0.0250992
113 1 0.340552 0.618646 0.259597
114 2 0.235693 0.613334 0.248825
115 3 0.216597 0.679298 0.220373
116 3 0.203009 0.602627 0.292635
117 2 0.399763 0.644382 0.208673
118 3 0.476175 0.655942 0.226703
119 3 0.355919 0.696145 0.184358
120 1 0.378061 0.601893 0.315836
121 2 0.317602 0.606528 0.373144
122 4 0.364132 0.605685 0.422638
123 4 0.224654 0.608732 0.366705
124 2 0.48687 0.588959 0.323204
125 4 0.517957 0.555377 0.372582
126 4 0.544166 0.6102 0.2793
127 1 0.402818 0.867019 0.503024
128 2 0.501489 0.876272 0.518187
129 3 0.509491 0.902343 0.563675
130 3 0.556125 0.872902 0.476277
131 2 0.336962 0.892691 0.548133
132 3 0.257433 0.897842 0.525912
133 3 0.379716 0.924141 0.583612
134 1 0.37313 0.838576 0.444437
135 2 0.452018 0.839172 0.395143
136 4 0.413207 0.828237 0.343699
137 4 0.542692 0.853807 0.405082
138 2 0.268052 0.825811 0.432708
139 4 0.250523 0.796946 0.378697
140 4 0.201057 0.852362 0.470475
141 1 0.165872 0.889629 0.241879
142 2 0.270091 0.887428 0.252909
143 3 0.277572 0.89097 0.301048
144 3 0.312513 0.940538 0.225117
145 2 0.105193 0.855036 0.287785
146 3 0.0210729 0.857434 0.275078
147 3 0.149025 0.822793 0.323861
148 1 0.122385 0.923737 0.190361
149 2 0.193661 0.94059 0.140211
150 4 0.158309 0.948465 0.0881615
151 4 0.286749 0.9504 0.152702
152 2 0.0134391 0.930261 0.179752
153 4 0.980771 0.962103 0.130321
154 4 0.955434 0.894981 0.219873
155 1 0.0838458 0.615498 0.0069377
156 2 0.985174 0.613386 0.995793
157 3 0.966191 0.58687 0.948745
158 3 0.942489 0.651986 0.0388408
159 2 0.148521 0.584663 0.959327
160 3 0.222142 0.582028 0.976471
161 3 0.113596 0.546272 0.923216
162 1 0.121254 0.650336 0.0625458
163 2 0.0525978 0.670336 0.115984
164 4 0.0976571 0.687388 0.165208
165 4 0.959858 0.670397 0.108067
166 2 0.227269 0.660107 0.0754509
167 4 0.259713 0.692134 0.126735
168 4 0.285411 0.631738 0.0335655
169 1 0.830354 0.632154 0.265446
170 2 0.728124 0.645394 0.258114
171 3 0.716405 0.642072 0.211374
172 3 0.68966 0.614335 0.301247
173 2 0.891015 0.670363 0.219744
174 3 0.967442 0.681208 0.239504
175 3 0.856144 0.653951 0.175937
176 1 0.875057 0.603849 0.318219
177 2 0.816057 0.589963 0.37263
178 4 0.864593 0.57761 0.420571
179 4 0.719909 0.59393 0.370504
180 2 0.986922 0.588513 0.324418
181 4 0.0203928 0.535727 0.365824
182 4 0.039703 0.620663 0.281765
183 1 0.922069 0.905215 0.490649
184 2 0.0190617 0.879301 0.504811
185 3 0.0395692 0.932805 0.539341
186 3 0.0594181 0.838577 0.465618
187 2 0.867221 0.955845 0.538089
188 3 0.788861 0.962258 0.520093
189 3 0.877083 0.91758 0.580499
190 1 0.879175 0.882084 0.437069
191 2 0.940707 0.831251 0.388607
192 4 0.902741 0.82977 0.336109
193 4 0.0257645 0.79778 0.400006
194 2 0.769333 0.872947 0.432224
195 4 0.737209 0.823649 0.386854
196 4 0.711939 0.90867 0.471929
197 1 0.671573 0.893563 0.247481
198 2 0.774167 0.901543 0.261025
199 3 0.772149 0.846372 0.294968
200 3 0.808126 0.900782 0.216478
201 2 0.606408 0.899055 0.298527
202 3 0.528918 0.925881 0.278093
203 3 0.624502 0.832753 0.320933
204 1 0.637697 0.883739 0.188654
205 2 0.703706 0.88088 0.133934
206 4 0.663209 0.872145 0.083341
207 4 0.79776 0.892043 0.139971
208 2 0.530301 0.88237 0.177613
209 4 0.506451 0.863764 0.122265
210 4 0.468323 0.900508 0.219235
211 1 0.572987 0.600925 0.00411466
212 2 0.469476 0.589964 0.996992
213 3 0.445009 0.619211 0.955092
214 3 0.438242 0.617988 0.0408448
215 2 0.633316 0.581247 0.956001
216 3 0.715322 0.597224 0.964405
217 3 0.595938 0.546414 0.908143
218 1 0.613396 0.625553 0.061169
219 2 0.552404 0.656865 0.113591
220 4 0.597565 0.672845 0.163298
221 4 0.459363 0.664272 0.107958
222 2 0.722211 0.623793 0.0675224
223 4 0.752319 0.634631 0.119887
224 4 0.781692 0.605598 0.022082
225 1 0.36276 0.118829 0.76233
226 2 0.269253 0.118765 0.741028
227 3 0.268024 0.165251 0.702218
228 3 0.220701 0.0968646 0.786911
229 2 0.441992 0.153513 0.730433
230 3 0.510389 0.151818 0.761796
231 3 0.419644 0.167589 0.683019
232 1 0.388074 0.0796191 0.819738
233 2 0.314622 0.0785777 0.867109
234 4 0.346631 0.0747279 0.922159
235 4 0.221553 0.0850823 0.854825
236 2 0.488769 0.0378086 0.834193
237 4 0.493261 0.96898 0.871386
238 4 0.560694 0.0736412 0.804693
239 1 0.414493 0.366229 0.983228
240 2 0.51063 0.338708 0.000979412
241 3 0.534016 0.386089 0.0371226
242 3 0.547843 0.321769 0.960145
243 2 0.359022 0.41293 0.0279106
244 3 0.274145 0.430073 0.00615377
245 3 0.382235 0.403732 0.0718858
246 1 0.377217 0.347352 0.926522
247 2 0.448035 0.311125 0.87617
248 4 0.415772 0.308974 0.823666
249 4 0.539312 0.293159 0.888645
250 2 0.277343 0.367676 0.909659
251 4 0.245269 0.340981 0.856516
252 4 0.219315 0.414601 0.947369
253 1 0.163506 0.387666 0.738665
254 2 0.265609 0.356166 0.743146
255 3 0.290724 0.407126 0.777254
256 3 0.289276 0.352932 0.697447
257 2 0.104723 0.389955 0.788011
258 3 0.0342429 0.427845 0.776686
259 3 0.140571 0.365247 0.838319
260 1 0.128145 0.420047 0.68311
261 2 0.197827 0.44893 0.633306
262 4 0.166022 0.429436 0.580259
263 4 0.28368 0.477177 0.645271
264 2 0.0195678 0.420468 0.673614
265 4 0.993309 0.416094 0.618908
266 4 0.961904 0.419311 0.719957
267 1 0.094311 0.132722 0.513231
268 2 0.992084 0.13192 0.503583
269 3 0.983223 0.0983255 0.457494
270 3 0.960785 0.147634 0.551653
271 2 0.15562 0.100233 0.468843
272 3 0.238388 0.105607 0.485339
273 3 0.119805 0.0889719 0.425905
274 1 0.134044 0.168023 0.568586
275 2 0.0777964 0.15735 0.625435
276 4 0.126376 0.150035 0.674019
277 4 0.984325 0.14407 0.622858
278 2 0.239803 0.197277 0.573364
279 4 0.265407 0.252169 0.616109
280 4 0.295568 0.178088 0.527939
281 1 0.838899 0.12586 0.762106
282 2 0.74049 0.109178 0.749859
283 3 0.729302 0.139648 0.705657
284 3 0.703445 0.0681448 0.787887
285 2 0.895056 0.183797 0.723283
286 3 0.972059 0.181634 0.742393
287 3 0.864916 0.173356 0.67852
288 1 0.884789 0.0862246 0.812804
289 2 0.823408 0.0518368 0.864853
290 4 0.867825 0.0375445 0.913927
291 4 0.732506 0.0318321 0.856143
292 2 0.99171 0.0654672 0.815075
293 4 0.0177917 0.00135092 0.85327
294 4 0.0479129 0.104773 0.776434
295 1 0.908042 0.365444 0.986692
296 2 0.00318818 0.34283 0.00144287
297 3 0.0333675 0.385877 0.0449985
298 3 0.0312158 0.307242 0.958003
299 2 0.847568 0.412856 0.0302528
300 3 0.775784 0.425978 0.00361244
301 3 0.864006 0.38525 0.0742469
302 1 0.865407 0.336997 0.931841
303 2 0.932327 0.315509 0.879189
304 4 0.88808 0.312128 0.828006
305 4 0.0234637 0.303161 0.886542
306 2 0.755311 0.323623 0.924008
307 4 0.72543 0.266011 0.884015
308 4 0.700494 0.369442 0.961125
309 1 0.665001 0.380759 0.734028
310 2 0.764001 0.377016 0.755233
311 3 0.770799 0.332507 0.797393
312 3 0.815593 0.38478 0.718697
313 2 0.594842 0.357122 0.776813
314 3 0.520552 0.391407 0.758132
315 3 0.622972 0.359431 0.821248
316 1 0.63756 0.407437 0.675717
317 2 0.71481 0.449317 0.635008
318 4 0.685444 0.490477 0.586576
319 4 0.803458 0.43635 0.649164
320 2 0.533167 0.407893 0.656067
321 4 0.518437 0.410341 0.598762
322 4 0.466381 0.393904 0.694539
323 1 0.586268 0.129804 0.50985
324 2 0.485331 0.137634 0.496013
325 3 0.46963 0.0974271 0.454575
326 3 0.449917 0.170418 0.534294
327 2 0.648885 0.0913806 0.468987
328 3 0.737672 0.0957686 0.484501
329 3 0.615428 0.0684791 0.42828
330 1 0.622115 0.16035 0.567115
331 2 0.554894 0.168494 0.620221
332 4 0.596216 0.180312 0.670064
333 4 0.459952 0.165708 0.611862
334 2 0.729829 0.18127 0.573238
335 4 0.752118 0.228552 0.619741
336 4 0.792609 0.157426 0.531061
337 1 0.331478 0.631972 0.762565
338 2 0.238332 0.612584 0.743542
339 3 0.214282 0.641308 0.699778
340 3 0.198273 0.569181 0.784216
341 2 0.400975 0.685652 0.727241
342 3 0.480039 0.690265 0.753501
343 3 0.385631 0.670627 0.679554
344 1 0.364617 0.596637 0.818572
345 2 0.294144 0.587379 0.869743
346 4 0.325964 0.595348 0.923081
347 4 0.203745 0.5701 0.855657
348 2 0.470597 0.585074 0.834013
349 4 0.493503 0.536319 0.881144
350 4 0.533296 0.6273 0.800938
351 1 0.408251 0.85558 0.00455719
352 2 0.507504 0.891521 0.00638034
353 3 0.543592 0.845181 0.0387953
354 3 0.521019 0.889979 0.957273
355 2 0.351506 0.83917 0.0546062
356 3 0.282773 0.797014 0.0448324
357 3 0.393613 0.85751 0.0991527
358 1 0.364038 0.824627 0.950269
359 2 0.430328 0.807772 0.8969
360 4 0.390532 0.82476 0.845745
361 4 0.510502 0.763297 0.906126
362 2 0.253737 0.824517 0.943589
363 4 0.222875 0.850674 0.89236
364 4 0.19948 0.812998 0.990659
365 1 0.146398 0.885187 0.74642
366 2 0.242014 0.906665 0.761137
367 3 0.252052 0.88617 0.809128
368 3 0.295897 0.913959 0.71535
369 2 0.0866999 0.853919 0.793928
370 3 0.00905054 0.860216 0.773324
371 3 0.114084 0.88055 0.838413
372 1 0.115555 0.897285 0.685005
373 2 0.182875 0.932779 0.63542
374 4 0.154099 0.957434 0.585573
375 4 0.275745 0.943731 0.651593
376 2 0.013896 0.888698 0.669469
377 4 0.98466 0.904546 0.614571
378 4 0.950425 0.871894 0.710804
379 1 0.105723 0.62627 0.511002
380 2 0.00924536 0.627032 0.496082
381 3 0.00252297 0.599466 0.452148
382 3 0.96391 0.670579 0.536846
383 2 0.17795 0.590294 0.468721
384 3 0.241986 0.639291 0.480698
385 3 0.142621 0.5618 0.430479
386 1 0.135216 0.659413 0.568649
387 2 0.0602944 0.669337 0.616099
388 4 0.093578 0.663071 0.66914
389 4 0.965518 0.674179 0.607048
390 2 0.242548 0.680025 0.579295
391 4 0.26474 0.710863 0.631947
392 4 0.30783 0.67333 0.537192
393 1 0.848661 0.641355 0.759354
394 2 0.749701 0.635249 0.741683
395 3 0.740659 0.657515 0.695348
396 3 0.711861 0.59246 0.776225
397 2 0.912463 0.684359 0.717769
398 3 0.98357 0.650042 0.728338
399 3 0.878628 0.69804 0.674683
400 1 0.884482 0.597202 0.810913
401 2 0.81207 0.578819 0.860972
402 4 0.845116 0.572181 0.914987
403 4 0.72104 0.573064 0.849714
404 2 0.988073 0.564635 0.816759
405 4 0.0103288 0.515443 0.86423
406 4 0.0479786 0.588972 0.776271
407 1 0.91522 0.859673 0.995938
408 2 0.00727912 0.829327 0.0181373
409 3 0.0312676 0.882305 0.0522792
410 3 0.0393448 0.788827 0.978609
411 2 0.857717 0.924251 0.0317983
412 3 0.77436 0.923947 0.0112181
413 3 0.8751 0.896928 0.0761694
414 1 0.878868 0.828516 0.940901
415 2 0.952648 0.797808 0.891402
416 4 0.923721 0.806001 0.837686
417 4 0.0409151 0.779885 0.906686
418 2 0.776862 0.840132 0.922032
419 4 0.752882 0.803794 0.869504
420 4 0.714277 0.886923 0.953916
421 1 0.663518 0.874481 0.751333
422 2 0.761498 0.840145 0.745274
423 3 0.79616 0.872901 0.785748
424 3 0.783268 0.856937 0.700162
425 2 0.61164 0.873008 0.80379
426 3 0.540342 0.909976 0.792661
427 3 0.648717 0.837988 0.851631
428 1 0.615015 0.917469 0.702671
429 2 0.677804 0.956961 0.651539
430 4 0.64312 0.937733 0.59927
431 4 0.756696 0.00225003 0.663041
432 2 0.506549 0.922286 0.698401
433 4 0.472947 0.919721 0.643637
434 4 0.451548 0.918709 0.745068
435 1 0.594286 0.644004 0.516615
436 2 0.491075 0.636279 0.511678
437 3 0.476288 0.616588 0.464286
438 3 0.458339 0.69187 0.547137
439 2 0.655294 0.621279 0.46794
440 3 0.73605 0.645949 0.479803
441 3 0.618067 0.589571 0.432447
442 1 0.630741 0.683093 0.570838
443 2 0.568677 0.685409 0.627406
444 4 0.614107 0.672891 0.675313
445 4 0.475428 0.691251 0.618894
446 2 0.734294 0.717492 0.57373
447 4 0.759551 0.75803 0.623187
448 4 0.796587 0.701525 0.531219
ITEM: TIMESTEP
2000
ITEM: NUMBER OF ATOMS
448