LAMMPS data file via write_data, version 15 Apr 2020, timestep = 80000

448 atoms
4 atom types

1.5375156102784615e-02 1.3863824843896655e+01 xlo xhi
2.4799282564150449e-01 1.3026807174358229e+01 ylo yhi
-1.7170910911330495e-02 2.2697081269211434e+01 zlo zhi
-3.3765358520099635e+00 -2.6873354921116877e-01 -2.4155437965976070e+00 xy xz yz

Masses

1 12.0107
2 14.0067
3 1.00794
4 15.9994

Atoms # full

1 1 1 -1.9267889467652324e-01 5.5391872373537288e+00 1.1839810314548038e+00 4.7772913722452257e+00 0 0 0
2 1 2 8.4625625282229749e-02 4.1149968036307341e+00 1.2885811302174728e+00 4.5509440033488273e+00 0 0 0
3 1 3 1.9850461004944661e-01 3.9331643653747830e+00 2.2338670992586840e+00 4.1298749521730604e+00 0 0 0
4 1 3 2.2768810154505337e-01 3.6042150725582087e+00 7.0979374614168356e-01 5.3762218868512894e+00 0 0 0
5 1 2 8.0149007040115322e-02 6.4016435885437142e+00 1.4535248851656801e+00 3.6849844411754766e+00 0 0 0
6 1 3 2.1716005163326302e-01 7.3182380360371964e+00 9.9784044785146997e-01 4.0893607785271149e+00 0 0 0
7 1 3 2.2475546687524153e-01 5.8088436445638489e+00 1.2873654350478296e+00 2.6083605502663061e+00 0 0 0
8 1 1 -1.5094407337799620e-01 6.0779007962732985e+00 9.2869451958083826e-01 6.0415738941273815e+00 0 0 0
9 1 2 3.7225904318624609e-01 5.1243674371415242e+00 6.6519012748795969e-01 7.1700980087856809e+00 0 0 0
10 1 4 -3.4824023504301310e-01 5.7276490911303650e+00 6.9676352025899968e-01 8.3153491033434559e+00 0 0 0
11 1 4 -3.8569534969504959e-01 3.8961690247303298e+00 3.3944721340478268e-01 7.0366113242819468e+00 0 0 0
12 1 2 3.6748142930330041e-01 7.5697004942667885e+00 9.1145780301410972e-01 6.3500227384305097e+00 0 0 0
13 1 4 -3.7840886361251330e-01 7.9212586645360101e+00 9.1995323114055982e-01 7.5698782389857238e+00 0 0 0
14 1 4 -3.7217519899679646e-01 8.3950935247838725e+00 1.0916116721961640e+00 5.3906952892350102e+00 0 0 0
15 1 1 -2.0778984094694580e-01 3.0774415153694368e+00 3.4421791262059251e+00 1.2302968787020625e+01 0 0 0
16 1 2 1.1232016020301867e-01 4.4759840668800281e+00 3.7728185300435060e+00 1.2632655421889538e+01 0 0 0
17 1 3 2.0912554057909474e-01 4.5219574969024183e+00 2.5857313848837875e+00 1.2587941023136203e+01 0 0 0
18 1 3 2.2857292184796996e-01 4.7146184174058403e+00 4.4943510654596324e+00 1.1751990543125906e+01 0 0 0
19 1 2 8.4148715398017673e-02 2.1369533516098680e+00 3.2113381016142020e+00 1.3354183823592894e+01 0 0 0
20 1 3 2.3442872474823021e-01 1.0648538980939108e+00 3.5249802492029678e+00 1.2848333564190407e+01 0 0 0
21 1 3 2.2480673751976998e-01 2.6556704798325250e+00 3.2307611509186653e+00 1.4330436166382897e+01 0 0 0
22 1 1 -1.5495033256780427e-01 2.5897338043346978e+00 3.6082805257408248e+00 1.0923811326412272e+01 0 0 0
23 1 2 3.7683950861438709e-01 3.6734066464167987e+00 3.7458905966031550e+00 9.8564300565778762e+00 0 0 0
24 1 4 -3.5171951183001166e-01 3.3481985786564494e+00 3.2947392874815180e+00 8.7234111367660709e+00 0 0 0
25 1 4 -3.8668714382159169e-01 4.8201046122429982e+00 4.2353811548674791e+00 1.0188931634719852e+01 0 0 0
26 1 2 3.6548298238382854e-01 1.2460842703735577e+00 3.5862257497686088e+00 1.0530296167673360e+01 0 0 0
27 1 4 -3.9853302562490223e-01 9.2867885907114900e-01 3.5420669169713985e+00 9.2433115218170521e+00 0 0 0
28 1 4 -3.7562283356787840e-01 3.2511741470669842e-01 3.5893319891504509e+00 1.1457781307290404e+01 0 0 0
29 1 1 -1.9465481640907545e-01 -3.7724478898605646e-01 4.2587373050034687e+00 6.6602937888699136e+00 0 0 0
30 1 2 9.2050755798434303e-02 1.0541270517793269e+00 4.2625563668398323e+00 6.9180288213443824e+00 0 0 0
31 1 3 2.0562206966655711e-01 1.1862354325874509e+00 3.2793499109829778e+00 7.3055110775885321e+00 0 0 0
32 1 3 2.3809132116705017e-01 1.6399647218786535e+00 4.7577836031191216e+00 6.0584090020407757e+00 0 0 0
33 1 2 8.7053350393703488e-02 -1.1373876980520679e+00 3.9118504205889204e+00 7.7212513560267579e+00 0 0 0
34 1 3 2.3012893511402188e-01 1.1664959250121081e+01 3.9326193713968172e+00 7.3257929092667036e+00 -1 0 0
35 1 3 2.3053718719412591e-01 -5.2157157593698589e-01 3.7343353867180387e+00 8.8764346102270899e+00 0 0 0
36 1 1 -1.4457975458060848e-01 -8.7822961666107546e-01 4.5076460476617850e+00 5.3563680488503271e+00 0 0 0
37 1 2 3.6976870511533233e-01 6.9484434417022151e-02 4.9163903128866133e+00 4.3465003957297599e+00 0 0 0
38 1 4 -3.4570275522132526e-01 -4.7529343228905907e-01 5.1063314847848602e+00 3.1863715791037444e+00 0 0 0
39 1 4 -3.8720331900133992e-01 1.3575605997192686e+00 4.9744588152765328e+00 4.5121780289317668e+00 0 0 0
40 1 2 3.8539995429112434e-01 1.1470716619861697e+01 4.3571612659352548e+00 4.9829880104138091e+00 -1 0 0
41 1 4 -3.7848514578977610e-01 1.1100208176462928e+01 4.4696294954846412e+00 3.7965947044480219e+00 0 0 0
42 1 4 -3.6211542714143430e-01 1.0708865429309734e+01 4.1557750391888693e+00 6.0187224667889554e+00 0 0 0
43 1 1 -1.9642336164167962e-01 2.2120726353443367e+00 -4.6111142213102219e-01 2.1762164832353349e+01 0 0 -1
44 1 2 8.9717462476592652e-02 8.3664153948370501e-01 -6.9698932698217475e-01 2.1454727520082756e+01 1 0 -1
45 1 3 2.2648820745327253e-01 6.6647613796291594e-01 -4.9139740804352083e-01 2.0427115519408964e+01 1 0 0
46 1 3 2.3300093301005820e-01 4.6111271648157676e-01 -1.3156866802540259e+00 2.2357501635228729e+01 1 0 -1
47 1 2 8.4951596197837945e-02 3.1999371947887147e+00 -7.5858007676222305e-02 2.0804864067212691e+01 0 0 0
48 1 3 2.1673716696347772e-01 4.2177731140952597e+00 -5.4662599272502277e-02 2.1350811009553944e+01 0 0 0
49 1 3 2.1756537033943171e-01 2.9520664363683911e+00 -5.3160723204619176e-01 1.9765099673827734e+01 0 0 0
50 1 1 -1.4609349337919111e-01 2.8011755353329986e+00 1.8521192515367024e+00 4.0684391899644262e-01 0 0 0
51 1 2 3.6893944343496832e-01 1.7012427891754953e+00 1.7122037474650895e+00 1.5107110570206865e+00 0 0 0
52 1 4 -3.7469252025002464e-01 2.0461425824466346e+00 2.1736379954390959e+00 2.6157029612424973e+00 0 0 0
53 1 4 -3.8684067870794098e-01 5.2460410248534362e-01 1.2470137855734074e+00 1.2413398035917493e+00 1 0 0
54 1 2 3.6916219732750322e-01 4.1995216395906620e+00 1.7241940507558418e+00 8.5167556274578671e-01 0 0 0
55 1 4 -3.8252819802928650e-01 4.3487957461719118e+00 1.3563647143820192e+00 2.0822639525557998e+00 0 0 0
56 1 4 -3.9721785652874170e-01 5.1745432272869030e+00 1.9754425704588181e+00 1.9141243391563284e-02 0 0 0
57 1 1 -2.0069493050094073e-01 1.2779240005642569e+01 1.3519409118278352e+00 4.6507795905263931e+00 0 0 0
58 1 2 8.2779316976293787e-02 1.1384590697810337e+01 1.3818156319218984e+00 4.3273850938664982e+00 0 0 0
59 1 3 2.0698887593189794e-01 1.1517902698739373e+01 1.3928592865621252e+00 3.2010641744217811e+00 0 0 0
60 1 3 2.3550249511741225e-01 1.0690486260811456e+01 8.0639865403438504e-01 5.0978785281948165e+00 0 0 0
61 1 2 8.7301448965127690e-02 -8.4388913242421079e-02 1.6123008526298550e+00 3.7435606281591385e+00 1 0 0
62 1 3 2.3520869995938373e-01 1.0044848202688927e+00 1.7762180829707639e+00 4.3854426348473288e+00 1 0 0
63 1 3 2.0649043090676947e-01 1.3307370741821181e+01 1.4935539790319725e+00 2.7178229500060285e+00 0 0 0
64 1 1 -1.4640397777682590e-01 1.3003960658270779e+01 1.0546182605220014e+00 6.0345949023657504e+00 0 0 0
65 1 2 3.7192364932029992e-01 1.1883510993735616e+01 7.9465261928409092e-01 7.0556720802764863e+00 0 0 0
66 1 4 -3.4143627367216633e-01 1.2315025329778416e+01 7.6953670617171765e-01 8.2716517259439630e+00 0 0 0
67 1 4 -3.8072899607834859e-01 1.0702800728372036e+01 5.3520106568561665e-01 6.6857248247384842e+00 0 0 0
68 1 2 3.6733421493526536e-01 4.9502341344652506e-01 1.1521393097474690e+00 6.5693094172795723e+00 1 0 0
69 1 4 -3.7466913006998942e-01 6.8108037823691236e-01 8.1398415423557147e-01 7.8198841620340263e+00 0 0 0
70 1 4 -3.9637761572832475e-01 1.4817943433187177e+00 1.5256298833455963e+00 5.8121846666462531e+00 0 0 0
71 1 1 -1.9524978183691341e-01 9.7868437526276804e+00 4.0227343876142108e+00 1.2253450972243566e+01 0 0 0
72 1 2 7.0217155178501550e-02 1.1156150367044976e+01 4.1410876508376253e+00 1.2655070315133292e+01 -1 0 0
73 1 3 2.0075944635387535e-01 1.1321059879619543e+01 3.5666584156428920e+00 1.3637918611521659e+01 -1 0 0
74 1 3 2.2342513170517050e-01 1.1878714339039908e+01 4.0279700522057711e+00 1.1811352824396687e+01 -1 0 0
75 1 2 8.8590990868525399e-02 8.8949748333740573e+00 3.6862987059115699e+00 1.3205093085264162e+01 0 0 0
76 1 3 2.3319300143778438e-01 7.8456440224677824e+00 3.4606727539260076e+00 1.2704266598856679e+01 0 0 0
77 1 3 2.1008582946232851e-01 9.2669952059443581e+00 4.0902578300657879e+00 1.4308366476496078e+01 0 0 0
78 1 1 -1.4566052115850778e-01 9.4189278367580815e+00 4.0222731726313361e+00 1.0888997551189401e+01 0 0 0
79 1 2 3.7036414547276086e-01 1.0483817728601570e+01 4.4228289184785865e+00 9.8512507378162013e+00 0 0 0
80 1 4 -3.1833154317670942e-01 9.9873851945589109e+00 4.7056926689428735e+00 8.7026526779629840e+00 0 0 0
81 1 4 -3.9536354181776334e-01 1.1706534257781103e+01 4.3493632027711895e+00 1.0156646398125694e+01 -1 0 0
82 1 2 3.7069001676952584e-01 8.1002807893275008e+00 3.5937303154219991e+00 1.0428664351587859e+01 0 0 0
83 1 4 -3.6146049105887168e-01 7.9628495129723271e+00 3.5136597865595385e+00 9.1315652459370522e+00 0 0 0
84 1 4 -3.5686184077381650e-01 7.1652664887795137e+00 3.2247412222006471e+00 1.1255039487099468e+01 0 0 0
85 1 1 -2.0326092653161273e-01 6.5672179865609968e+00 3.9876624340621283e+00 6.4635798301388556e+00 0 0 0
86 1 2 1.0181075975204562e-01 8.0445581257811423e+00 4.1404149828735664e+00 6.6982860749631641e+00 0 0 0
87 1 3 1.9884719178948115e-01 7.9366602234702528e+00 2.9625788505410822e+00 6.5052771371964129e+00 0 0 0
88 1 3 2.3177003438467536e-01 8.3574540834190323e+00 4.8710149911219647e+00 5.9693378665765140e+00 0 0 0
89 1 2 8.5764918022176603e-02 5.7969896867318660e+00 3.5908752958895551e+00 7.6135758167884928e+00 0 0 0
90 1 3 2.3891936612000575e-01 4.7320995713407559e+00 4.1011251536999982e+00 7.4490010440002852e+00 0 0 0
91 1 3 2.2644559787200769e-01 6.4696419042089692e+00 3.2575460193122217e+00 8.5466758941164311e+00 0 0 0
92 1 1 -1.4893476248585352e-01 5.9749865751345794e+00 4.4218865059537231e+00 5.2803661451647059e+00 0 0 0
93 1 2 3.7624359342053559e-01 6.9300263760008498e+00 4.8051140868193318e+00 4.1454307618157955e+00 0 0 0
94 1 4 -3.6211960241280888e-01 6.4586164794414698e+00 4.9289848255019804e+00 2.9795510301509385e+00 0 0 0
95 1 4 -3.8286713118882776e-01 8.1979304384851712e+00 4.8948567217224381e+00 4.3439275715883996e+00 0 0 0
96 1 2 3.7223392535030192e-01 4.5031916216535040e+00 4.3732464688523622e+00 5.1381543956875353e+00 0 0 0
97 1 4 -3.8731984063941211e-01 4.0781893247473899e+00 4.4414830409393620e+00 3.9361375650524155e+00 0 0 0
98 1 4 -3.7481407374699205e-01 3.7614798864557186e+00 4.1128699367313004e+00 6.1721078824260491e+00 0 0 0
99 1 1 -1.9303690417486286e-01 8.7777987684263241e+00 -2.6377642982471206e-01 2.1716874737157184e+01 0 0 -1
100 1 2 8.2426402316033626e-02 7.3352415768972339e+00 -1.5124071465749100e-01 2.1697165718082339e+01 0 0 -1
101 1 3 1.9956045986628823e-01 7.2125632030256286e+00 7.9049810617888916e-01 2.1199796927452667e+01 0 0 0
102 1 3 2.3419952733674879e-01 6.9491564115718010e+00 -6.0717951469365583e-01 2.2643949710720626e+01 0 0 -1
103 1 2 8.1705763563354822e-02 9.5202580744002123e+00 2.6917847276949791e-02 2.0568203862841294e+01 0 0 0
104 1 3 2.3476921939310769e-01 1.0605615965175144e+01 -2.8313107941589721e-01 2.0752183643314389e+01 0 0 0
105 1 3 2.1210742784513151e-01 8.8561567358376703e+00 -4.9326900607371105e-02 1.9665444397444233e+01 0 0 0
106 1 1 -1.4749760484952468e-01 9.6819030287752561e+00 1.7950633831323533e+00 1.9920701798652007e-01 0 0 0
107 1 2 3.6755376102687559e-01 8.8910235607258965e+00 1.4266216796801048e+00 1.4328238315999318e+00 0 0 0
108 1 4 -3.5162560731099524e-01 9.6353582159846081e+00 1.1815671514961428e+00 2.4491673133347587e+00 0 0 0
109 1 4 -3.9490674414224397e-01 7.6196845113848735e+00 1.5442801768398660e+00 1.4470223350330511e+00 0 0 0
110 1 2 3.8237733279402575e-01 1.1180706786751927e+01 1.8846102722675624e+00 3.3583235328782290e-01 0 0 0
111 1 4 -3.6373913560059618e-01 1.1672113723215105e+01 1.7800265049547459e+00 1.5184510855359303e+00 0 0 0
112 1 4 -3.4700255826196941e-01 1.1630202355843625e+01 -2.5126859397834167e-01 2.2015146153973134e+01 0 0 -1
113 1 1 -1.9602363083890237e-01 3.8500009280143623e+00 7.7352651491057847e+00 4.6213845342460793e+00 0 0 0
114 1 2 9.7241723217867698e-02 2.4054841896280763e+00 7.5948241702969526e+00 4.3791481322306964e+00 0 0 0
115 1 3 2.0001911844844969e-01 2.1290021303957474e+00 8.6464908535880305e+00 4.2183588623981736e+00 0 0 0
116 1 3 2.3822847388355375e-01 2.0165336676978707e+00 6.8524105916058904e+00 5.2834327218760624e+00 0 0 0
117 1 2 9.9027271561400426e-02 4.6010580296314592e+00 8.0920317582683392e+00 3.5333762745503408e+00 0 0 0
118 1 3 2.3991307214659893e-01 5.7657301392830931e+00 8.0741488512962292e+00 3.9201595722402343e+00 0 0 0
119 1 3 2.2798549423802722e-01 3.8269117556762207e+00 8.1289983890675046e+00 2.5162892283975538e+00 0 0 0
120 1 1 -1.5217664241388534e-01 4.3628827002560628e+00 7.2718372307322587e+00 5.8563881286305799e+00 0 0 0
121 1 2 3.5992686782020744e-01 3.4868879127915391e+00 6.9963361922471359e+00 7.0261758807086787e+00 0 0 0
122 1 4 -3.5674356921580425e-01 3.9852303002153113e+00 7.0494203310376315e+00 8.2062667518148249e+00 0 0 0
123 1 4 -4.0128894652198949e-01 2.1974092609061229e+00 6.7975865587048583e+00 6.8206761633892308e+00 0 0 0
124 1 2 3.8963872646015507e-01 5.8350078577926503e+00 7.3479913429810697e+00 6.1656333622727457e+00 0 0 0
125 1 4 -3.7070994352096043e-01 6.2404433660614940e+00 7.0391393565429734e+00 7.3271014880611443e+00 0 0 0
126 1 4 -3.5878433001680055e-01 6.6154607676308004e+00 7.7707425924802092e+00 5.2407128602173758e+00 0 0 0
127 1 1 -1.9501727006226222e-01 1.1646243708221338e+00 9.8604717806426336e+00 1.2212247118997588e+01 0 0 0
128 1 2 7.7744236479538070e-02 2.5388777345708355e+00 9.8863525933719529e+00 1.2498210112605934e+01 0 0 0
129 1 3 1.9553430984244502e-01 2.6546834390939757e+00 9.7667557251657406e+00 1.3559901706965720e+01 0 0 0
130 1 3 2.3702825334106273e-01 3.1678960726399867e+00 9.9125491427195982e+00 1.1608415330688318e+01 0 0 0
131 1 2 7.7988715852347901e-02 2.7821416735605448e-01 9.7709523287326974e+00 1.3245136800578244e+01 0 0 0
132 1 3 2.4175307256398282e-01 -8.9204414393407616e-01 9.6410191099606735e+00 1.2889305741659451e+01 0 0 0
133 1 3 2.0394347016887748e-01 7.1599863088949611e-01 9.5785644240263288e+00 1.4215456371304654e+01 0 0 0
134 1 1 -1.4659052279354026e-01 6.8851528032527076e-01 9.8352183933278283e+00 1.0863757832043088e+01 0 0 0
135 1 2 3.6693732504591792e-01 1.7974004379359068e+00 1.0004715925955963e+01 9.7047700217412025e+00 0 0 0
136 1 4 -3.6272838292314258e-01 1.3284361432812413e+00 1.0016827854817404e+01 8.5474703321466166e+00 0 0 0
137 1 4 -3.7844307499598079e-01 3.0464639136265617e+00 9.9841116279831645e+00 9.9681090876675409e+00 0 0 0
138 1 2 3.5228318350361826e-01 -6.5295631526550657e-01 9.9222961152747331e+00 1.0522718706535271e+01 0 0 0
139 1 4 -3.9473057769048803e-01 -1.0181087775252242e+00 1.0210329055389462e+01 9.2590919081006273e+00 0 0 0
140 1 4 -3.7553711176993049e-01 -1.5462986000748602e+00 9.8086495997009564e+00 1.1491323494635264e+01 0 0 0
141 1 1 -1.9341678462460976e-01 -2.2942380546947962e+00 1.0637617706890804e+01 6.8110541140659677e+00 0 0 0
142 1 2 1.0180566849872888e-01 -8.2978220759899246e-01 1.0500970996938079e+01 6.9571104446478946e+00 0 0 0
143 1 3 2.1144103076468562e-01 -7.1121217118598845e-01 9.5737914831472288e+00 7.3163411557431859e+00 0 0 0
144 1 3 2.3769331812936184e-01 -3.7529630791509694e-01 1.1340820977204860e+01 6.2269247380594503e+00 0 0 0
145 1 2 1.1115781953012463e-01 1.0787058879230868e+01 1.0479474510065359e+01 7.8975273465205413e+00 -1 0 0
146 1 3 2.4941912679020950e-01 9.6516388277916292e+00 1.0749025835866377e+01 7.5275052190953664e+00 -1 0 0
147 1 3 2.4152811934990948e-01 -2.4729101668584801e+00 1.0346692835728799e+01 9.0757724288227930e+00 0 0 0
148 1 1 -1.4727820249737045e-01 -2.7749039443062791e+00 1.0952151264047284e+01 5.5058572951800127e+00 0 0 0
149 1 2 3.6600529574486196e-01 -1.7638098597487699e+00 1.1247534795257895e+01 4.3992906477358140e+00 0 0 0
150 1 4 -3.5598920364284103e-01 -2.3229340837959054e+00 1.1256150059750563e+01 3.2489173032352219e+00 0 0 0
151 1 4 -4.0337940949455825e-01 -5.6613798781516200e-01 1.1518693049941742e+01 4.6164384586506939e+00 0 0 0
152 1 2 3.8708268058483614e-01 9.6272129023980781e+00 1.0951746384850807e+01 5.1887565097695738e+00 -1 0 0
153 1 4 -3.7468073353098746e-01 9.3108572971632846e+00 1.1096757254572797e+01 3.9722568698235556e+00 0 0 0
154 1 4 -3.5397869410716004e-01 8.7921900810212321e+00 1.0843245433595378e+01 6.2010384503004836e+00 0 0 0
155 1 1 -2.0001196484726519e-01 1.8515437237439486e-01 5.7980353688295816e+00 2.1614904957035321e+01 0 0 -1
156 1 2 9.2551758208554935e-02 -1.1775296230157866e+00 5.7740654858646536e+00 2.1271462837976337e+01 1 0 -1
157 1 3 2.2430054420812975e-01 -1.3104696991326177e+00 6.2724104254483057e+00 2.0283171398242061e+01 1 0 0
158 1 3 2.4460494447133993e-01 -1.7849283815479642e+00 5.7113602026479482e+00 2.2247703676064859e+01 1 0 -1
159 1 2 1.0708809248186521e-01 1.1735792671367047e+00 5.8242382412257934e+00 2.0662572658995835e+01 0 0 0
160 1 3 2.4803333832874899e-01 2.2051586550519464e+00 6.1412767684289156e+00 2.1306219672228124e+01 0 0 0
161 1 3 2.2458311692060631e-01 6.8696093981057538e-01 5.9140562432167245e+00 1.9627922579523180e+01 0 0 0
162 1 1 -1.4813016525060549e-01 7.9966072739320648e-01 8.2248224086471495e+00 2.9326103000546894e-01 0 0 0
163 1 2 3.6751390635848713e-01 -2.3197578805139507e-01 8.1524798414802184e+00 1.4282635213147377e+00 0 0 0
164 1 4 -3.4332765462901810e-01 2.3194695111550329e-01 8.0298260844210780e+00 2.5973717374193619e+00 0 0 0
165 1 4 -3.7669813616578590e-01 -1.4731075697107239e+00 8.2710174252832402e+00 1.1413669638439088e+00 1 0 0
166 1 2 3.5626318438471466e-01 2.1578934110162189e+00 8.3077141734038307e+00 7.7954929569831988e-01 0 0 0
167 1 4 -3.7807867843015464e-01 2.3610085722365115e+00 8.0513361592158876e+00 2.0507924017714210e+00 0 0 0
168 1 4 -3.9281768522726529e-01 2.8946059707654839e+00 6.0601215912600823e+00 2.2669852092407545e+01 0 0 -1
169 1 1 -2.0226983912637969e-01 1.0809695971895502e+01 7.8055765251380000e+00 4.6534237121526285e+00 0 0 0
170 1 2 9.4046382721551330e-02 9.4771660090471954e+00 7.5966220231956720e+00 4.2576628776694410e+00 0 0 0
171 1 3 2.1426763275257804e-01 9.3320705594465281e+00 8.2904410150951158e+00 3.4042404635527865e+00 0 0 0
172 1 3 2.4484014436279572e-01 8.8288379073979915e+00 7.4307368293024503e+00 5.2530399503957934e+00 0 0 0
173 1 2 8.5123608450740296e-02 -2.0934929970839029e+00 8.1164904040228230e+00 3.7209204065690233e+00 1 0 0
174 1 3 2.2963134951097461e-01 -1.0365035925146513e+00 8.3308809874054432e+00 4.3970467029050608e+00 1 0 0
175 1 3 2.1152935082762037e-01 1.1358337717165702e+01 8.1566109944797347e+00 2.7240428923096016e+00 0 0 0
176 1 1 -1.5248549628220104e-01 1.1156715534354497e+01 7.7246214582944601e+00 6.1037889493446338e+00 0 0 0
177 1 2 3.8417353762189432e-01 1.0156890622345294e+01 7.5102268552765645e+00 7.2035405367513263e+00 0 0 0
178 1 4 -3.4872367698100315e-01 1.0588574862055367e+01 7.6531422755398841e+00 8.3757821039830436e+00 0 0 0
179 1 4 -3.7207855651350807e-01 8.8994982294046387e+00 7.3425254366943005e+00 6.8701890598981379e+00 0 0 0
180 1 2 3.5222616578416188e-01 -1.3242627654526014e+00 7.7606778073258420e+00 6.4508058605413217e+00 1 0 0
181 1 4 -3.7702102731246545e-01 -1.0429029197637036e+00 7.4651050410091475e+00 7.7618693256049784e+00 0 0 0
182 1 4 -3.9316060779731110e-01 -3.1928962786202930e-01 8.1291918246875774e+00 5.7142387844483986e+00 0 0 0
183 1 1 -1.8683875044554182e-01 7.9725255756390432e+00 1.0233072229161436e+01 1.2411461082649785e+01 0 0 0
184 1 2 7.8678755616645141e-02 9.3255903624191685e+00 1.0687313642981710e+01 1.2767854292486206e+01 -1 0 0
185 1 3 2.1586651681021601e-01 9.8433227514888859e+00 9.8417062028311726e+00 1.3149086155816782e+01 -1 0 0
186 1 3 2.1277425876628001e-01 9.6839329098458684e+00 1.1220467450886822e+01 1.1876677520328714e+01 -1 0 0
187 1 2 1.0279164652060882e-01 7.2536884292970347e+00 9.7872768867606652e+00 1.3484864519866658e+01 0 0 0
188 1 3 2.3916111311734359e-01 6.1795149416409076e+00 9.5001588592064330e+00 1.3123754289117668e+01 0 0 0
189 1 3 2.4017472866432293e-01 7.8514630116681339e+00 9.8573606310557516e+00 1.4635733663085185e+01 0 0 0
190 1 1 -1.3775150518351786e-01 7.5025347661839508e+00 1.0341438469708077e+01 1.1105614924600703e+01 0 0 0
191 1 2 3.7896908514517158e-01 8.4571691354751710e+00 1.0756285101325261e+01 9.9969622278100356e+00 0 0 0
192 1 4 -3.3727673390598534e-01 7.9685074855035909e+00 1.0549465059904119e+01 8.8362784830551782e+00 0 0 0
193 1 4 -3.9450172256838895e-01 9.6823694701045859e+00 1.1038877195975793e+01 1.0228452393620518e+01 -1 0 0
194 1 2 3.8857882093155177e-01 6.0611193871971727e+00 9.9541082843271944e+00 1.0853801744630882e+01 0 0 0
195 1 4 -3.6398615701776493e-01 5.7148095741894025e+00 1.0122096158170287e+01 9.6535698374019532e+00 0 0 0
196 1 4 -3.6501299776807367e-01 5.2938845940960491e+00 9.5163811800197990e+00 1.1802896728854790e+01 0 0 0
197 1 1 -1.9688189311451412e-01 4.5861452757828873e+00 1.0562455950257498e+01 6.5829812971524282e+00 0 0 0
198 1 2 9.3341826413997409e-02 5.9114792851572258e+00 1.0927303734704708e+01 6.8934277186739159e+00 0 0 0
199 1 3 2.0708709380134865e-01 6.0377308577094650e+00 1.0625831401390730e+01 7.9120352099385176e+00 0 0 0
200 1 3 2.4869629662167186e-01 6.5285985978909364e+00 1.1468412760760252e+01 6.0940354566484922e+00 0 0 0
201 1 2 8.4109145191205797e-02 3.7631527749482445e+00 9.9681305168061343e+00 7.5148948030385823e+00 0 0 0
202 1 3 2.4016780942901089e-01 2.6199720249109264e+00 9.9115849321748719e+00 7.1138644653391889e+00 0 0 0
203 1 3 2.1520211585912477e-01 4.3195382764075410e+00 9.8530654318162689e+00 8.4686149708510090e+00 0 0 0
204 1 1 -1.4301473913926491e-01 4.1598841763826604e+00 1.0714521228327321e+01 5.2372500596949472e+00 0 0 0
205 1 2 3.7155298538537762e-01 5.2529614029172782e+00 1.0845316460181774e+01 4.1435607125997684e+00 0 0 0
206 1 4 -3.6468476257725563e-01 4.8346507823952312e+00 1.0627993645031825e+01 2.9862712097856838e+00 0 0 0
207 1 4 -3.7544946886057307e-01 6.4708407295224699e+00 1.1105159625938324e+01 4.4532394260909252e+00 0 0 0
208 1 2 3.5827382883831582e-01 2.7484556932739812e+00 1.0589482479715734e+01 4.8979006327738412e+00 0 0 0
209 1 4 -3.8668799530169634e-01 2.4578377339782227e+00 1.0846793883857405e+01 3.6300493492281718e+00 0 0 0
210 1 4 -3.8440493642648582e-01 1.8784079367029516e+00 1.0210288889371242e+01 5.7539964574618390e+00 0 0 0
211 1 1 -1.9753397378768958e-01 6.8981998220294560e+00 6.1275333963343579e+00 2.1667105764940302e+01 0 0 -1
212 1 2 1.0974338032327588e-01 5.4508202804575898e+00 6.0738216867573769e+00 2.1505871709405135e+01 0 0 -1
213 1 3 1.9877219069392210e-01 5.6486119483022019e+00 7.2421548760552410e+00 2.1342047092494170e+01 0 0 0
214 1 3 2.4831245614595682e-01 5.0401915004746298e+00 5.4449368643724574e+00 2.2413025222558574e+01 0 0 -1
215 1 2 8.8706111016481543e-02 7.7764821119239418e+00 6.3809200585184032e+00 2.0545245513199937e+01 0 0 0
216 1 3 2.4006104777745071e-01 8.9450504564232780e+00 6.0272506981799134e+00 2.0728737879438754e+01 0 0 0
217 1 3 2.2271211433305216e-01 7.1165876640001855e+00 6.8372054330853524e+00 1.9719181259273185e+01 0 0 0
218 1 1 -1.4587597595774768e-01 7.7528668871009954e+00 8.3026446228568389e+00 2.5176527164012602e-01 0 0 0
219 1 2 3.8087748172120212e-01 6.9505248935408090e+00 7.9047863613180516e+00 1.4594897585303586e+00 0 0 0
220 1 4 -3.4627878094257042e-01 7.5868993240451328e+00 7.8561397087906686e+00 2.5512632357336549e+00 0 0 0
221 1 4 -3.8271573701889933e-01 5.6764721292404072e+00 7.7101086149902986e+00 1.2603628377128555e+00 0 0 0
222 1 2 3.8346691741275996e-01 9.2120203162268020e+00 8.4423010178477291e+00 3.3775207959985426e-01 0 0 0
223 1 4 -3.4945103405918859e-01 9.6373020847042294e+00 8.4909558589130114e+00 1.5476523243647828e+00 0 0 0
224 1 4 -3.5599922356274427e-01 9.7958800328849893e+00 6.0756965161854763e+00 2.2060607545106222e+01 0 0 -1
225 1 1 -1.9284704047670592e-01 5.5316277014390147e+00 6.1297955964145778e-03 1.6080705145003051e+01 0 0 0
226 1 2 8.3050423271028323e-02 4.2258267597909551e+00 -1.4842286022591367e-01 1.5627333504759973e+01 0 0 0
227 1 3 2.1695676785338228e-01 4.1467052280597061e+00 -1.8819077672195261e-01 1.4475792366798364e+01 0 0 0
228 1 3 2.1234748887959393e-01 3.4837768526853465e+00 2.8222943532940414e-02 1.6417378392115346e+01 0 0 0
229 1 2 7.8196670117993708e-02 6.5996609401554274e+00 -2.1119121858149015e-02 1.5145665743397686e+01 0 0 0
230 1 3 2.1847141214160479e-01 7.5461957323471616e+00 3.6038461110713138e-01 1.5749742755743666e+01 0 0 0
231 1 3 2.1421119184805776e-01 6.2119218300491585e+00 1.3920368153173257e-01 1.4141865855224822e+01 0 0 0
232 1 1 -1.4279813547994291e-01 5.8128767510093802e+00 1.0747655411824986e-01 1.7443278114512125e+01 0 0 0
233 1 2 3.6937123030050584e-01 4.7483687931843672e+00 4.1411512312561127e-02 1.8516873739465950e+01 0 0 0
234 1 4 -3.9129076057350137e-01 4.8300552009801114e+00 9.9936113749456279e-01 1.9366023396143035e+01 0 0 0
235 1 4 -3.8131025193890822e-01 3.9004864433021411e+00 -8.9459527732844046e-01 1.8471877992268276e+01 0 0 0
236 1 2 3.5757024433216483e-01 7.2306586768757759e+00 1.3146769205000863e-01 1.7980976618536481e+01 0 0 0
237 1 4 -3.9647593657989622e-01 7.2902611990446022e+00 -4.8970664231718031e-02 1.9251629513777075e+01 0 0 0
238 1 4 -3.9327884631929022e-01 8.2456543583755053e+00 1.9788863002507240e-01 1.7199248948184014e+01 0 0 0
239 1 1 -1.9496771132393931e-01 3.2377515412768996e+00 5.0488471991042401e+00 9.6463259626770581e-01 0 0 1
240 1 2 8.2885680391114824e-02 4.5874265501393463e+00 4.7840945731653903e+00 1.2705853530869082e+00 0 0 1
241 1 3 2.2430284979686907e-01 4.7614452942450489e+00 4.9293578700268021e+00 2.3653374696278133e+00 0 0 0
242 1 3 2.3859997772237396e-01 5.2314877216093505e+00 4.9543382643354041e+00 3.2588937583480787e-01 0 0 1
243 1 2 9.5587229435402182e-02 2.2245317942089611e+00 5.0278201998818028e+00 1.9868659215456801e+00 0 0 0
244 1 3 2.3086365853606428e-01 1.1244806745880962e+00 5.0075757954749065e+00 1.5178412139100432e+00 0 0 0
245 1 3 2.1393612426715700e-01 2.7153515259530048e+00 4.3284255245398686e+00 2.6930592475252055e+00 0 0 0
246 1 1 -1.4466065141698267e-01 2.5948385911020218e+00 2.9239585770310494e+00 2.2323300899317275e+01 0 0 0
247 1 2 3.7263382188346339e-01 3.6803812566828045e+00 3.4375121116498302e+00 2.1358996928039474e+01 0 0 0
248 1 4 -3.2803186021187125e-01 3.2231191916865471e+00 4.1540577654428734e+00 2.0416846242844123e+01 0 0 0
249 1 4 -3.5084894415552981e-01 4.9453445489880368e+00 3.3432652865907091e+00 2.1558132116041691e+01 0 0 0
250 1 2 3.7864031547490706e-01 1.2446879410555245e+00 2.7381573914191781e+00 2.1864257783543437e+01 0 0 0
251 1 4 -3.7204839204278967e-01 1.0248395872452631e+00 2.8352841213383226e+00 2.0579247857349998e+01 0 0 0
252 1 4 -3.7589566133322871e-01 5.7101606420331452e-01 4.9935055716194148e+00 3.2835440041355461e-02 0 0 1
253 1 1 -2.0598942598271167e-01 -2.9291748904388137e-01 3.1898999295402937e+00 1.8071269924950975e+01 0 0 0
254 1 2 9.5321497530271332e-02 1.1155312913048350e+00 3.5643487962700680e+00 1.8220253697462674e+01 0 0 0
255 1 3 1.9469623390812660e-01 1.2594578233356222e+00 2.4694500267802888e+00 1.8131401330537443e+01 0 0 0
256 1 3 2.2523527987395575e-01 1.2327044693661768e+00 4.2048860368129235e+00 1.7337954918018539e+01 0 0 0
257 1 2 8.0099334905893660e-02 -1.0964107895651380e+00 2.7551953922908403e+00 1.9162874190169426e+01 0 0 0
258 1 3 2.2553004482244354e-01 1.1698026796440798e+01 2.9668815958148875e+00 1.8855986748652818e+01 -1 0 0
259 1 3 2.2460838610779055e-01 -5.4553253034319327e-01 2.7520995026942696e+00 2.0270908715905783e+01 0 0 0
260 1 1 -1.5575008122563591e-01 -9.1147122836239625e-01 3.4840043730578030e+00 1.6779574461560216e+01 0 0 0
261 1 2 3.7507651931469899e-01 4.4592209326527188e-04 3.7714045790166240e+00 1.5639780009983525e+01 0 0 0
262 1 4 -3.4649733542971956e-01 -5.8573823974202832e-01 3.5870891328846861e+00 1.4502915803172359e+01 0 0 0
263 1 4 -3.8865802063129529e-01 1.2594860983089045e+00 4.0052757954473801e+00 1.5706091641713325e+01 0 0 0
264 1 2 3.6354381547812664e-01 1.1522121035748247e+01 3.2306763440827928e+00 1.6555553141719507e+01 -1 0 0
265 1 4 -3.9173595587691723e-01 1.1078340267467558e+01 3.3398780690203687e+00 1.5348368971347398e+01 0 0 0
266 1 4 -3.8105687880401462e-01 1.0721442540267345e+01 3.0063390097314890e+00 1.7568724109938877e+01 0 0 0
267 1 1 -1.9280819269102231e-01 2.1019980662663014e+00 5.0453157979108365e-01 1.0429303599616782e+01 0 0 0
268 1 2 9.2904932394151027e-02 6.6366943930952915e-01 4.3817632202144230e-01 1.0205125374727961e+01 1 0 0
269 1 3 1.9428626596904225e-01 5.5511742874269820e-01 1.4387029757175913e+00 9.8294078198590604e+00 1 0 0
270 1 3 2.2324975598668315e-01 1.0788894007165217e-01 1.3600297937203498e-01 1.1162098239990994e+01 1 0 0
271 1 2 1.0487161359171678e-01 2.8749711731821317e+00 6.7987493528975140e-01 9.3035169256417252e+00 0 0 0
272 1 3 2.4558448649638512e-01 4.0137863479035669e+00 7.9358660213509258e-01 9.5250587023665734e+00 0 0 0
273 1 3 2.3051308355016556e-01 2.1547246152751991e+00 9.5285456365241261e-01 8.3395870344218661e+00 0 0 0
274 1 1 -1.5109833812435702e-01 2.7491011211662908e+00 4.2435260641309158e-01 1.1674247880107902e+01 0 0 0
275 1 2 3.7015665100025424e-01 1.8165599554643683e+00 7.8445119652269968e-02 1.2832797481791783e+01 0 0 0
276 1 4 -3.6217561563337208e-01 2.3435107248596516e+00 -5.2512738601914410e-02 1.3977177150781079e+01 0 0 0
277 1 4 -3.9826552575614627e-01 5.2815356875692165e-01 8.4596778228028802e-02 1.2726699076483955e+01 1 0 0
278 1 2 3.6990959010336616e-01 4.1948523399021589e+00 5.8494379307351130e-01 1.1827999535998828e+01 0 0 0