ITEM: TIMESTEP
0
ITEM: NUMBER OF ATOMS
336
ITEM: BOX BOUNDS xy xz yz pp pp pp
0.0000000000000000e+00 2.6364000320399999e+01 0.0000000000000000e+00
0.0000000000000000e+00 1.1574000358599999e+01 0.0000000000000000e+00
0.0000000000000000e+00 1.0708999633800000e+01 0.0000000000000000e+00
ITEM: ATOMS id type xs ys zs
1 1 0.0930182 0.352353 0.445493
2 1 0.906961 0.647626 0.554505
3 1 0.156977 0.647642 0.945493
4 1 0.343021 0.352356 0.054507
5 1 0.90697 0.852365 0.0545059
6 1 0.0930217 0.147644 0.945493
7 1 0.34303 0.147635 0.554506
8 1 0.156981 0.852354 0.445493
9 1 0.593009 0.352345 0.445491
10 1 0.406989 0.647653 0.554509
11 1 0.656988 0.647653 0.945491
12 1 0.843005 0.352341 0.0545102
13 1 0.406995 0.852341 0.0545102
14 1 0.593012 0.147653 0.945491
15 1 0.843011 0.147653 0.554509
16 1 0.656991 0.852344 0.445491
17 1 0.0246422 0.231392 0.339686
18 1 0.975364 0.768617 0.660344
19 1 0.225359 0.76861 0.839681
20 1 0.274641 0.231391 0.160318
21 1 0.975361 0.731388 0.160332
22 1 0.0246413 0.26861 0.839682
23 1 0.274639 0.268613 0.660329
24 1 0.225358 0.731392 0.339685
25 1 0.524644 0.231394 0.339696
26 1 0.475356 0.768607 0.660306
27 1 0.725356 0.768607 0.839694
28 1 0.774645 0.231396 0.160301
29 1 0.475355 0.731396 0.160301
30 1 0.524644 0.268607 0.839694
31 1 0.774644 0.268607 0.660305
32 1 0.725356 0.731394 0.339696
33 1 0.0751842 0.376658 0.208389
34 1 0.924812 0.62334 0.791606
35 1 0.174815 0.623341 0.70839
36 1 0.325185 0.376658 0.29161
37 1 0.924814 0.876659 0.291608
38 1 0.0751851 0.123341 0.70839
39 1 0.325186 0.12334 0.791608
40 1 0.174815 0.876658 0.20839
41 1 0.575182 0.376656 0.208388
42 1 0.424817 0.623343 0.791612
43 1 0.674817 0.623343 0.708388
44 1 0.825181 0.376654 0.291614
45 1 0.424819 0.876654 0.291614
46 1 0.575183 0.123343 0.708388
47 1 0.825183 0.123343 0.791612
48 1 0.674818 0.876656 0.208388
49 2 0.126036 0.296317 0.428292
50 2 0.873961 0.703684 0.571715
51 2 0.123963 0.703683 0.92829
52 2 0.376036 0.296317 0.0717091
53 2 0.873962 0.796316 0.0717122
54 2 0.126036 0.203683 0.928291
55 2 0.376038 0.203684 0.571712
56 2 0.123964 0.796317 0.428292
57 2 0.626034 0.296317 0.428296
58 2 0.373965 0.703683 0.571705
59 2 0.623965 0.703683 0.928295
60 2 0.876033 0.296317 0.0717014
61 2 0.373967 0.796317 0.0717015
62 2 0.626035 0.203683 0.928295
63 2 0.876034 0.203683 0.571704
64 2 0.623966 0.796317 0.428297
65 2 0.103617 0.400475 0.53021
66 2 0.896382 0.599515 0.469792
67 2 0.146383 0.599522 0.0302098
68 2 0.353617 0.400477 0.96979
69 2 0.896382 0.900481 0.969791
70 2 0.103617 0.0995231 0.0302099
71 2 0.353618 0.099519 0.469791
72 2 0.146383 0.900476 0.53021
73 2 0.603616 0.400469 0.530211
74 2 0.396384 0.59953 0.469789
75 2 0.646384 0.599529 0.0302112
76 2 0.853616 0.400466 0.969788
77 2 0.396384 0.900466 0.969788
78 2 0.603616 0.0995293 0.0302112
79 2 0.853616 0.0995298 0.469789
80 2 0.646384 0.900469 0.530211
81 2 0.986003 0.198132 0.352932
82 2 0.0139979 0.801867 0.647068
83 2 0.263997 0.801868 0.852932
84 2 0.236003 0.198132 0.147068
85 2 0.0139976 0.698133 0.147068
86 2 0.986003 0.301868 0.852932
87 2 0.236002 0.301867 0.647068
88 2 0.263997 0.698132 0.352932
89 2 0.486003 0.198132 0.352931
90 2 0.513997 0.801868 0.647069
91 2 0.763997 0.801868 0.852931
92 2 0.736003 0.198131 0.147069
93 2 0.513997 0.698131 0.147069
94 2 0.486003 0.301868 0.852931
95 2 0.736003 0.301868 0.647069
96 2 0.763997 0.698132 0.352931
97 2 0.0483806 0.156425 0.317849
98 2 0.951619 0.843574 0.68215
99 2 0.201619 0.843575 0.81785
100 2 0.29838 0.156425 0.18215
101 2 0.951619 0.656426 0.18215
102 2 0.0483806 0.343575 0.81785
103 2 0.298381 0.343574 0.68215
104 2 0.201619 0.656425 0.31785
105 2 0.54838 0.156423 0.317849
106 2 0.451619 0.843577 0.682151
107 2 0.70162 0.843576 0.817849
108 2 0.798381 0.156423 0.182151
109 2 0.45162 0.656423 0.182151
110 2 0.54838 0.343577 0.817849
111 2 0.798381 0.343577 0.682151
112 2 0.70162 0.656423 0.317849
113 2 0.107193 0.32034 0.183375
114 2 0.892804 0.679663 0.816626
115 2 0.142807 0.679661 0.683375
116 2 0.357193 0.320339 0.316625
117 2 0.892805 0.820338 0.316626
118 2 0.107193 0.179661 0.683375
119 2 0.357194 0.179662 0.816625
120 2 0.142807 0.82034 0.183375
121 2 0.607191 0.320342 0.183376
122 2 0.392809 0.679659 0.816624
123 2 0.642809 0.679659 0.683376
124 2 0.85719 0.320343 0.316623
125 2 0.39281 0.820343 0.316623
126 2 0.607191 0.179659 0.683376
127 2 0.857191 0.179659 0.816624
128 2 0.642809 0.820342 0.183376
129 2 0.0737386 0.440509 0.132443
130 2 0.92626 0.559486 0.867554
131 2 0.176261 0.55949 0.632443
132 2 0.323739 0.440509 0.367557
133 2 0.92626 0.940512 0.367555
134 2 0.0737389 0.0594906 0.632443
135 2 0.323739 0.0594886 0.867555
136 2 0.176261 0.940509 0.132443
137 2 0.573738 0.440505 0.132441
138 2 0.426262 0.559494 0.867559
139 2 0.676262 0.559494 0.632441
140 2 0.823737 0.440504 0.36756
141 2 0.426263 0.940504 0.36756
142 2 0.573738 0.0594938 0.632441
143 2 0.823738 0.0594941 0.867559
144 2 0.676262 0.940505 0.132441
145 3 0.0881629 0.437708 0.334077
146 3 0.911839 0.562287 0.665941
147 3 0.161837 0.562291 0.834073
148 3 0.338163 0.437709 0.165926
149 3 0.911838 0.937711 0.165934
150 3 0.0881627 0.062291 0.834074
151 3 0.338162 0.0622892 0.665933
152 3 0.161837 0.937708 0.334075
153 3 0.588164 0.437708 0.334084
154 3 0.411836 0.562292 0.665917
155 3 0.661836 0.562292 0.834082
156 3 0.838165 0.437708 0.165911
157 3 0.411835 0.937708 0.165911
158 3 0.588164 0.0622922 0.834082
159 3 0.838164 0.0622921 0.665917
160 3 0.661836 0.937708 0.334085
161 3 0.0453713 0.275431 0.467224
162 3 0.95463 0.724614 0.53276
163 3 0.204629 0.724579 0.967227
164 3 0.295371 0.275424 0.0327742
165 3 0.954629 0.775405 0.032768
166 3 0.0453711 0.224576 0.967226
167 3 0.295371 0.224594 0.532768
168 3 0.204629 0.775428 0.467225
169 3 0.545372 0.275448 0.467221
170 3 0.454628 0.724556 0.532778
171 3 0.704628 0.724556 0.967222
172 3 0.795373 0.275457 0.0327791
173 3 0.454627 0.775457 0.0327792
174 3 0.545372 0.224557 0.967222
175 3 0.795372 0.224555 0.532778
176 3 0.704628 0.775449 0.467221
177 3 0.0256927 0.302606 0.214367
178 3 0.974308 0.697394 0.785632
179 3 0.224307 0.697395 0.714367
180 3 0.275693 0.302606 0.285632
181 3 0.974308 0.802607 0.285631
182 3 0.0256925 0.197395 0.714367
183 3 0.275692 0.197395 0.785633
184 3 0.224307 0.802605 0.214367
185 3 0.525694 0.302606 0.214366
186 3 0.474306 0.697395 0.785634
187 3 0.724306 0.697395 0.714366
188 3 0.775694 0.302606 0.285634
189 3 0.474306 0.802606 0.285634
190 3 0.525694 0.197395 0.714366
191 3 0.775694 0.197395 0.785634
192 3 0.724306 0.802606 0.214366
193 3 0.11848 0.558612 0.334327
194 3 0.881524 0.441399 0.66567
195 3 0.131521 0.441391 0.834328
196 3 0.368479 0.55861 0.165673
197 3 0.881522 0.058605 0.165671
198 3 0.118479 0.94139 0.834328
199 3 0.368478 0.941395 0.665671
200 3 0.131521 0.0586109 0.334327
201 3 0.618481 0.558618 0.334325
202 3 0.381519 0.441384 0.665674
203 3 0.631519 0.441384 0.834326
204 3 0.868482 0.558622 0.165676
205 3 0.381518 0.0586216 0.165676
206 3 0.618481 0.941384 0.834326
207 3 0.868481 0.941383 0.665675
208 3 0.631519 0.0586182 0.334325
209 3 0.00373289 0.356487 0.531785
210 3 0.996283 0.643487 0.468195
211 3 0.24627 0.643507 0.031789
212 3 0.253731 0.356491 0.968212
213 3 0.996276 0.856501 0.968204
214 3 0.00373046 0.143509 0.0317879
215 3 0.253724 0.143499 0.468205
216 3 0.246268 0.856489 0.531786
217 3 0.503739 0.356478 0.531779
218 3 0.496262 0.643519 0.46822
219 3 0.746263 0.643519 0.0317802
220 3 0.753742 0.356474 0.968224
221 3 0.496258 0.856474 0.968224
222 3 0.503737 0.143519 0.0317803
223 3 0.753738 0.14352 0.46822
224 3 0.746261 0.856478 0.531778
225 3 0.978749 0.390357 0.203779
226 3 0.0212551 0.609639 0.796221
227 3 0.271253 0.609642 0.703779
228 3 0.228748 0.390357 0.296221
229 3 0.0212531 0.890358 0.296221
230 3 0.978748 0.109642 0.703779
231 3 0.228746 0.10964 0.796221
232 3 0.271252 0.890357 0.203779
233 3 0.478751 0.390355 0.203779
234 3 0.52125 0.609644 0.796222
235 3 0.77125 0.609644 0.703778
236 3 0.728752 0.390353 0.296222
237 3 0.521248 0.890353 0.296222
238 3 0.47875 0.109644 0.703778
239 3 0.72875 0.109644 0.796222
240 3 0.771249 0.890355 0.203779
241 4 0.119261 0.618415 0.233762
242 4 0.880741 0.381589 0.766247
243 4 0.130739 0.381586 0.73376
244 4 0.369261 0.618414 0.266239
245 4 0.88074 0.118413 0.266244
246 4 0.119261 0.881586 0.733761
247 4 0.36926 0.881587 0.766243
248 4 0.130739 0.118415 0.233762
249 4 0.619263 0.618417 0.233769
250 4 0.380737 0.381583 0.766233
251 4 0.630738 0.381583 0.733767
252 4 0.869264 0.618418 0.266228
253 4 0.380736 0.118418 0.266228
254 4 0.619262 0.881583 0.733767
255 4 0.869263 0.881583 0.766232
256 4 0.630737 0.118417 0.233769
257 4 0.138781 0.590174 0.437272
258 4 0.861218 0.409827 0.562715
259 4 0.111219 0.409826 0.937275
260 4 0.388781 0.590174 0.0627255
261 4 0.861219 0.0901735 0.0627195
262 4 0.138781 0.909826 0.937275
263 4 0.388781 0.909826 0.56272
264 4 0.111219 0.0901744 0.437273
265 4 0.63878 0.590175 0.437264
266 4 0.36122 0.409825 0.562734
267 4 0.61122 0.409825 0.937266
268 4 0.888779 0.590175 0.0627405
269 4 0.361221 0.0901754 0.0627404
270 4 0.63878 0.909825 0.937266
271 4 0.88878 0.909825 0.562735
272 4 0.61122 0.090175 0.437264
273 4 0.957434 0.320551 0.533038
274 4 0.0425676 0.679449 0.466962
275 4 0.292567 0.679449 0.0330379
276 4 0.207434 0.320551 0.966962
277 4 0.0425672 0.820551 0.966962
278 4 0.957434 0.179449 0.033038
279 4 0.207433 0.179449 0.466962
280 4 0.292566 0.820551 0.533038
281 4 0.457436 0.320553 0.533038
282 4 0.542565 0.679448 0.466962
283 4 0.792565 0.679448 0.033038
284 4 0.707437 0.320554 0.966962
285 4 0.542563 0.820554 0.966962
286 4 0.457435 0.179448 0.033038
287 4 0.707435 0.179447 0.466962
288 4 0.792564 0.820553 0.533038
289 4 0.0188906 0.435327 0.608296
290 4 0.981109 0.564672 0.391703
291 4 0.231109 0.564673 0.108297
292 4 0.268891 0.435327 0.891703
293 4 0.981109 0.935328 0.891703
294 4 0.0188908 0.0646727 0.108297
295 4 0.268891 0.0646721 0.391703
296 4 0.231109 0.935327 0.608297
297 4 0.51889 0.435326 0.608295
298 4 0.48111 0.564674 0.391704
299 4 0.73111 0.564674 0.108296
300 4 0.768889 0.435324 0.891706
301 4 0.481111 0.935324 0.891706
302 4 0.51889 0.0646738 0.108296
303 4 0.76889 0.064674 0.391705
304 4 0.73111 0.935325 0.608295
305 4 0.936062 0.360512 0.25194
306 4 0.0639364 0.639486 0.748062
307 4 0.313938 0.639488 0.75194
308 4 0.186062 0.360512 0.24806
309 4 0.063937 0.860513 0.248061
310 4 0.936062 0.139488 0.75194
311 4 0.186063 0.139487 0.748061
312 4 0.313938 0.860512 0.25194
313 4 0.436061 0.360511 0.251941
314 4 0.563938 0.639489 0.748059
315 4 0.813938 0.639489 0.751941
316 4 0.686061 0.36051 0.248058
317 4 0.563939 0.860511 0.248058
318 4 0.436062 0.139489 0.751941
319 4 0.686062 0.139489 0.748059
320 4 0.813939 0.860511 0.251941
321 4 0.983305 0.480527 0.133986
322 4 0.0166945 0.519479 0.86601
323 4 0.266695 0.519474 0.633987
324 4 0.233305 0.480526 0.366014
325 4 0.0166945 0.980523 0.366012
326 4 0.983305 0.0194739 0.633987
327 4 0.233305 0.0194762 0.866012
328 4 0.266695 0.980527 0.133986
329 4 0.483305 0.480531 0.133983
330 4 0.516695 0.51947 0.866016
331 4 0.766695 0.51947 0.633984
332 4 0.733305 0.480533 0.366018
333 4 0.516695 0.980533 0.366018
334 4 0.483305 0.0194697 0.633984
335 4 0.733305 0.0194695 0.866016
336 4 0.766695 0.980531 0.133983
ITEM: TIMESTEP
1000
ITEM: NUMBER OF ATOMS
336
ITEM: BOX BOUNDS xy xz yz pp pp pp
-1.6632383953994072e+00 2.8455179597755546e+01 3.4593614452586136e-01
-1.0313701749170692e+00 1.2643060482706682e+01 8.2004737430355759e-02
-4.3767599931870915e-01 1.1146675633118729e+01 3.7689949189606893e-02
ITEM: ATOMS id type xs ys zs
1 1 0.0882067 0.398005 0.437064
2 1 0.94591 0.600103 0.549756
3 1 0.161648 0.591562 0.936955
4 1 0.313292 0.412416 0.0495629
5 1 0.928143 0.899407 0.082632
6 1 0.0868303 0.191233 0.90905
7 1 0.330891 0.114989 0.547522
8 1 0.18717 0.908027 0.420783
9 1 0.573061 0.409985 0.434025
10 1 0.391802 0.653081 0.581938
11 1 0.654588 0.583825 0.932509
12 1 0.822971 0.431607 0.0621437
13 1 0.40499 0.858866 0.0936424
14 1 0.569725 0.090396 0.913068
15 1 0.810554 0.0855544 0.557728
16 1 0.674758 0.886833 0.436574
17 1 0.0448042 0.275846 0.308247
18 1 0.961593 0.718419 0.713819
19 1 0.192684 0.730817 0.815097
20 1 0.280554 0.278588 0.187521
21 1 0.970542 0.778633 0.218559
22 1 0.0223643 0.242431 0.777832
23 1 0.280356 0.230784 0.664577
24 1 0.226188 0.762945 0.32017
25 1 0.544272 0.274838 0.298773
26 1 0.458246 0.731097 0.673958
27 1 0.704251 0.698367 0.813988
28 1 0.806527 0.293403 0.200952
29 1 0.46842 0.748812 0.161775
30 1 0.537769 0.234055 0.795414
31 1 0.789768 0.223666 0.704389
32 1 0.727127 0.774815 0.306495
33 1 0.065243 0.454334 0.232672
34 1 0.925879 0.56192 0.762415
35 1 0.18025 0.568194 0.719607
36 1 0.323573 0.41916 0.267793
37 1 0.952971 0.953037 0.289148
38 1 0.0877256 0.14356 0.694753
39 1 0.308689 0.0682379 0.753122
40 1 0.198257 0.906294 0.201518
41 1 0.576416 0.431711 0.212883
42 1 0.408157 0.624577 0.797675
43 1 0.684813 0.533232 0.733486
44 1 0.828487 0.455289 0.288298
45 1 0.426779 0.858688 0.308919
46 1 0.563235 0.0814611 0.691787
47 1 0.816965 0.0589898 0.779166
48 1 0.687793 0.929479 0.221602
49 2 0.121896 0.365698 0.411669
50 2 0.913761 0.628926 0.512149
51 2 0.126612 0.616434 0.920859
52 2 0.347545 0.386764 0.0202412
53 2 0.894117 0.876832 0.103618
54 2 0.109045 0.258192 0.902484
55 2 0.362176 0.146016 0.574338
56 2 0.150739 0.880399 0.428121
57 2 0.608668 0.387751 0.449566
58 2 0.368538 0.71707 0.595495
59 2 0.623311 0.617464 0.890711
60 2 0.85813 0.414915 0.0289819
61 2 0.379419 0.799754 0.0893115
62 2 0.605147 0.115647 0.918785
63 2 0.843014 0.110026 0.524503
64 2 0.641863 0.84973 0.431502
65 2 0.0942894 0.42389 0.526211
66 2 0.962759 0.564984 0.474781
67 2 0.15961 0.555728 0.0221438
68 2 0.299956 0.45952 0.978815
69 2 0.923377 0.925602 0.99855
70 2 0.094943 0.165273 0.999459
71 2 0.340014 0.0874009 0.462583
72 2 0.189946 0.954366 0.503726
73 2 0.56426 0.449102 0.516155
74 2 0.378965 0.615178 0.503683
75 2 0.643746 0.564518 0.02265
76 2 0.805213 0.473547 0.99214
77 2 0.392756 0.909623 0.0251553
78 2 0.568481 0.0516178 0.9993
79 2 0.791635 0.0495861 0.491327
80 2 0.672561 0.918282 0.523877
81 2 0.0175868 0.227061 0.308894
82 2 0.985324 0.77484 0.744787
83 2 0.218644 0.789115 0.819284
84 2 0.248817 0.235443 0.197047
85 2 0.994964 0.714973 0.223221
86 2 0.986392 0.262665 0.765837
87 2 0.247516 0.267519 0.657664
88 2 0.253897 0.705856 0.330084
89 2 0.51623 0.224937 0.291292
90 2 0.491485 0.764415 0.660392
91 2 0.731171 0.752534 0.822953
92 2 0.784548 0.233418 0.214351
93 2 0.500973 0.705625 0.139992
94 2 0.511927 0.292936 0.80517
95 2 0.766374 0.285344 0.715232
96 2 0.758599 0.731054 0.310899
97 2 0.0726469 0.226971 0.278409
98 2 0.927954 0.756007 0.717985
99 2 0.161432 0.765649 0.788874
100 2 0.309334 0.224777 0.197177
101 2 0.938499 0.752056 0.253402
102 2 0.0405545 0.310025 0.758989
103 2 0.307267 0.280835 0.692553
104 2 0.195531 0.71811 0.308563
105 2 0.575192 0.230131 0.291016
106 2 0.437502 0.801013 0.694267
107 2 0.67743 0.737186 0.770639
108 2 0.841002 0.268716 0.196343
109 2 0.44438 0.687997 0.171972
110 2 0.57084 0.26998 0.780931
111 2 0.824701 0.250029 0.712519
112 2 0.703236 0.720434 0.274037
113 2 0.0953331 0.438166 0.178503
114 2 0.894343 0.603486 0.75715
115 2 0.143782 0.590432 0.691108
116 2 0.355927 0.375799 0.268836
117 2 0.921706 0.936143 0.338404
118 2 0.104801 0.210599 0.669964
119 2 0.340757 0.0905037 0.794054
120 2 0.167777 0.872091 0.17514
121 2 0.610907 0.405093 0.198894
122 2 0.384657 0.683065 0.833283
123 2 0.654843 0.556826 0.679616
124 2 0.865033 0.445368 0.308993
125 2 0.405756 0.799056 0.343693
126 2 0.5955 0.108558 0.663113
127 2 0.851968 0.0801868 0.800905
128 2 0.660892 0.898813 0.169289
129 2 0.0483918 0.517522 0.189798
130 2 0.921765 0.504231 0.824482
131 2 0.192987 0.514163 0.650933
132 2 0.326006 0.469073 0.342354
133 2 0.965985 0.0149962 0.335957
134 2 0.0970967 0.0887233 0.62967
135 2 0.296546 0.00775081 0.805793
136 2 0.206557 0.952357 0.127828
137 2 0.571744 0.48611 0.141387
138 2 0.408067 0.568199 0.865635
139 2 0.700053 0.470549 0.686649
140 2 0.816094 0.513289 0.349449
141 2 0.430722 0.908591 0.384746
142 2 0.555166 0.0281244 0.626115
143 2 0.810409 0.00235422 0.842219
144 2 0.696152 0.996715 0.175299
145 3 0.0789002 0.49322 0.352418
146 3 0.933627 0.519864 0.637006
147 3 0.172319 0.514848 0.835461
148 3 0.322443 0.480398 0.152058
149 3 0.937814 0.985642 0.167893
150 3 0.105252 0.114417 0.818713
151 3 0.321083 0.0268252 0.631898
152 3 0.190573 0.973991 0.315945
153 3 0.573131 0.48619 0.332327
154 3 0.384092 0.583485 0.683856
155 3 0.666738 0.494804 0.852831
156 3 0.828286 0.50124 0.163747
157 3 0.3995 0.913913 0.212536
158 3 0.56727 0.0195958 0.809996
159 3 0.819167 0.0120786 0.658193
160 3 0.67184 0.967476 0.342813
161 3 0.0570107 0.309593 0.43714
162 3 0.972099 0.691622 0.589207
163 3 0.186226 0.688128 0.941482
164 3 0.283745 0.316311 0.0617759
165 3 0.958775 0.805509 0.0874032
166 3 0.0362124 0.228268 0.904791
167 3 0.297777 0.201774 0.535708
168 3 0.216995 0.812798 0.437312
169 3 0.545908 0.315772 0.425644
170 3 0.440521 0.692027 0.55932
171 3 0.687616 0.669691 0.939345
172 3 0.797206 0.332856 0.0792446
173 3 0.449307 0.806528 0.0563681
174 3 0.541701 0.188365 0.917262
175 3 0.784523 0.185748 0.577795
176 3 0.710332 0.801092 0.429191
177 3 0.0353638 0.360045 0.220765
178 3 0.958143 0.637575 0.811627
179 3 0.207222 0.665044 0.709655
180 3 0.286768 0.345786 0.298228
181 3 0.982408 0.857298 0.306429
182 3 0.0364449 0.165258 0.682458
183 3 0.275337 0.159379 0.767342
184 3 0.232428 0.820331 0.201506
185 3 0.54448 0.345376 0.191078
186 3 0.454755 0.667533 0.787069
187 3 0.717062 0.620124 0.721135
188 3 0.803318 0.359385 0.312376
189 3 0.47282 0.807455 0.278967
190 3 0.529153 0.166639 0.686251
191 3 0.784049 0.150542 0.803245
192 3 0.727119 0.854943 0.209126
193 3 0.124668 0.549467 0.341263
194 3 0.890861 0.460577 0.589771
195 3 0.128147 0.451834 0.826326
196 3 0.365428 0.547933 0.139618
197 3 0.891204 0.0514308 0.173489
198 3 0.085914 0.0101655 0.851701
199 3 0.365911 0.96103 0.647493
200 3 0.145347 0.0390102 0.299388
201 3 0.616083 0.55117 0.347488
202 3 0.396622 0.470122 0.661945
203 3 0.620263 0.442447 0.830343
204 3 0.86885 0.57644 0.148554
205 3 0.417853 0.0215634 0.196921
206 3 0.609867 0.946228 0.810029
207 3 0.864276 0.943837 0.642947
208 3 0.62546 0.0309085 0.337324
209 3 0.011433 0.325269 0.507113
210 3 0.0250896 0.708287 0.555528
211 3 0.232739 0.680737 0.0127758
212 3 0.232755 0.330766 0.0203361
213 3 0.00354556 0.814634 0.0107984
214 3 0.999456 0.157263 0.963816
215 3 0.256282 0.173344 0.458132
216 3 0.265262 0.835084 0.496743
217 3 0.494378 0.324591 0.473144
218 3 0.47749 0.620524 0.496951
219 3 0.733161 0.648697 0.00778756
220 3 0.744727 0.3288 0.0463668
221 3 0.483855 0.880034 0.993249
222 3 0.494196 0.196921 0.984924
223 3 0.732383 0.179093 0.543001
224 3 0.747402 0.797628 0.529955
225 3 0.9832 0.392003 0.236434
226 3 0.00515273 0.590483 0.85428
227 3 0.26002 0.64471 0.697531
228 3 0.243378 0.410424 0.336112
229 3 0.0357669 0.878424 0.303435
230 3 0.00368026 0.0717672 0.691554
231 3 0.224644 0.121706 0.774537
232 3 0.283978 0.855819 0.19216
233 3 0.49526 0.395523 0.183374
234 3 0.492923 0.580668 0.799038
235 3 0.767811 0.581366 0.741827
236 3 0.751678 0.38902 0.339997
237 3 0.513843 0.879418 0.265616
238 3 0.477665 0.132249 0.684904
239 3 0.732226 0.120131 0.81843
240 3 0.778905 0.891797 0.205744
241 4 0.141402 0.556873 0.23651
242 4 0.873512 0.400468 0.664939
243 4 0.117756 0.429047 0.721708
244 4 0.385394 0.573469 0.235068
245 4 0.873945 0.0680579 0.272726
246 4 0.075865 0.945196 0.772218
247 4 0.384332 0.95611 0.747935
248 4 0.129714 0.0585981 0.197758
249 4 0.63302 0.590409 0.256065
250 4 0.403387 0.414283 0.750415
251 4 0.613835 0.412534 0.724102
252 4 0.884834 0.61589 0.239155
253 4 0.43545 0.0707806 0.278766
254 4 0.621147 0.899015 0.719319
255 4 0.88325 0.914699 0.734204
256 4 0.614345 0.0622062 0.236695
257 4 0.141361 0.59044 0.429992
258 4 0.873006 0.479918 0.493602
259 4 0.101323 0.442649 0.912432
260 4 0.38008 0.567968 0.0380486
261 4 0.867038 0.0576784 0.0815388
262 4 0.0835434 0.983851 0.957223
263 4 0.379406 0.912476 0.556215
264 4 0.124368 0.0639779 0.390843
265 4 0.635629 0.557925 0.447859
266 4 0.396894 0.433196 0.558913
267 4 0.595723 0.418117 0.916731
268 4 0.893596 0.577671 0.0542282
269 4 0.410087 0.0671056 0.0979043
270 4 0.63017 0.933936 0.909562
271 4 0.884598 0.943897 0.541749
272 4 0.605922 0.0519267 0.432264
273 4 0.980973 0.259139 0.49426
274 4 0.0510351 0.753151 0.62302
275 4 0.263095 0.743523 0.990629
276 4 0.200544 0.312162 0.0905568
277 4 0.036903 0.755703 0.0341292
278 4 0.957719 0.184963 0.960805
279 4 0.217621 0.2101 0.485428
280 4 0.301984 0.816165 0.445217
281 4 0.467491 0.260802 0.438552
282 4 0.519642 0.630166 0.508565
283 4 0.76648 0.706271 0.983914
284 4 0.721172 0.261378 0.088049
285 4 0.525484 0.860315 0.00455443
286 4 0.461427 0.244351 0.934126
287 4 0.702372 0.190432 0.621068
288 4 0.779445 0.732724 0.522819
289 4 0.00725955 0.389592 0.588334
290 4 0.0405366 0.655428 0.47218
291 4 0.236465 0.624136 0.100657
292 4 0.226392 0.345086 0.910136
293 4 0.00172401 0.870456 0.920892
294 4 0.0111537 0.0767634 0.0110886
295 4 0.263396 0.128131 0.3591
296 4 0.263301 0.857369 0.606192
297 4 0.483895 0.38275 0.557511
298 4 0.462717 0.565325 0.413705
299 4 0.7332 0.5943 0.0986888
300 4 0.728243 0.392922 0.972814
301 4 0.46974 0.949854 0.925217
302 4 0.489252 0.140465 0.0730175
303 4 0.725186 0.138516 0.442705
304 4 0.74547 0.860898 0.611438
305 4 0.953344 0.338251 0.193019
306 4 0.0405551 0.641356 0.844687
307 4 0.286515 0.683651 0.770351
308 4 0.206019 0.365265 0.34119
309 4 0.0625063 0.805231 0.28685
310 4 0.968829 0.0781117 0.760712
311 4 0.19292 0.180419 0.741649
312 4 0.314468 0.791125 0.164184
313 4 0.462339 0.335427 0.172444
314 4 0.533794 0.605226 0.79958
315 4 0.796912 0.64823 0.75266
316 4 0.722358 0.318707 0.35042
317 4 0.554787 0.842659 0.25283
318 4 0.444995 0.191491 0.708067
319 4 0.705325 0.175164 0.880477
320 4 0.806164 0.859071 0.282527
321 4 0.974237 0.480945 0.272937
322 4 0.00485367 0.50918 0.911052
323 4 0.276128 0.595047 0.608989
324 4 0.248662 0.501359 0.361548
325 4 0.0475306 0.968182 0.285379
326 4 0.0102268 0.996597 0.628871
327 4 0.218193 0.0308702 0.803982
328 4 0.29215 0.94721 0.185555
329 4 0.489483 0.486016 0.153598
330 4 0.48244 0.489923 0.790679
331 4 0.778263 0.48824 0.736339
332 4 0.739717 0.476922 0.365004
333 4 0.505862 0.973319 0.268988
334 4 0.469977 0.0425505 0.652556
335 4 0.721589 0.0319791 0.790495
336 4 0.791029 0.934658 0.112799
ITEM: TIMESTEP
2000
ITEM: NUMBER OF ATOMS
336
ITEM: BOX BOUNDS xy xz yz pp pp pp
-1.6180362460340687e+00 2.8741355917447969e+01 8.5455458052819855e-01
-1.1016724130633568e+00 1.2474422021224854e+01 -9.5235229514266870e-02
-7.5843580763453389e-01 1.1467435441434567e+01 -2.0125075043846979e-01
ITEM: ATOMS id type xs ys zs
1 1 0.0979936 0.37323 0.35728
2 1 0.94575 0.667434 0.603707
3 1 0.148689 0.629827 0.873723
4 1 0.323492 0.386241 0.0728871
5 1 0.931165 0.861115 0.155866
6 1 0.0811546 0.172206 0.917042
7 1 0.33872 0.115979 0.588738
8 1 0.176126 0.927867 0.435612
9 1 0.587805 0.348269 0.367382
10 1 0.376466 0.671382 0.6003
11 1 0.655383 0.618534 0.872744
12 1 0.829134 0.381277 0.117414
13 1 0.407928 0.823881 0.0958179
14 1 0.584165 0.141787 0.848305
15 1 0.806561 0.12899 0.617256
16 1 0.674468 0.843127 0.393303
17 1 0.0463356 0.281785 0.216071
18 1 0.960235 0.731305 0.801889
19 1 0.174496 0.749076 0.72877
20 1 0.30009 0.277937 0.231592
21 1 0.977763 0.774729 0.317433
22 1 0.0367676 0.242785 0.753806
23 1 0.296561 0.239839 0.717012
24 1 0.193031 0.776897 0.305611
25 1 0.555439 0.281199 0.194576
26 1 0.447049 0.731161 0.713139
27 1 0.70903 0.705813 0.745667
28 1 0.814166 0.317806 0.308326
29 1 0.482848 0.72704 0.164088
30 1 0.539741 0.231114 0.689325
31 1 0.778803 0.218035 0.790114
32 1 0.723517 0.736971 0.254118
33 1 0.0676473 0.460116 0.191213
34 1 0.924844 0.558582 0.767304
35 1 0.153551 0.573995 0.673007
36 1 0.32777 0.457862 0.266053
37 1 0.94863 0.954946 0.335488
38 1 0.0954563 0.0885048 0.728216
39 1 0.312265 0.0614313 0.770825
40 1 0.189569 0.957249 0.231354
41 1 0.58202 0.454125 0.203225
42 1 0.39355 0.603666 0.799187
43 1 0.693352 0.527311 0.715045
44 1 0.826216 0.502216 0.275953
45 1 0.436435 0.837266 0.299603
46 1 0.568756 0.0534678 0.660835
47 1 0.822618 0.047028 0.800594
48 1 0.695618 0.918926 0.223144
49 2 0.129845 0.355613 0.314583
50 2 0.912586 0.710164 0.59442
51 2 0.112824 0.657607 0.875218
52 2 0.358859 0.353988 0.0759146
53 2 0.89609 0.844716 0.16009
54 2 0.107406 0.228421 0.922361
55 2 0.370765 0.136648 0.623483
56 2 0.138493 0.919754 0.430059
57 2 0.622649 0.32246 0.336873
58 2 0.352063 0.738588 0.619027
59 2 0.624945 0.62975 0.825001
60 2 0.865353 0.362048 0.12374
61 2 0.384503 0.765569 0.107655
62 2 0.616791 0.16874 0.82119
63 2 0.840593 0.166216 0.622835
64 2 0.641521 0.819537 0.357071
65 2 0.105085 0.379738 0.449049
66 2 0.961893 0.659773 0.522562
67 2 0.153341 0.604423 0.958533
68 2 0.317073 0.402994 0.985685
69 2 0.934974 0.87052 0.0641149
70 2 0.0780453 0.161115 0.00685453
71 2 0.349723 0.0946711 0.50688
72 2 0.180088 0.956703 0.520958
73 2 0.587945 0.346698 0.457254
74 2 0.36787 0.645195 0.516376
75 2 0.641699 0.609622 0.957901
76 2 0.823174 0.371175 0.0288615
77 2 0.39487 0.873847 0.0272052
78 2 0.587148 0.132298 0.936417
79 2 0.801843 0.115631 0.52829
80 2 0.666353 0.855519 0.480663
81 2 0.0209299 0.224659 0.207406
82 2 0.98695 0.762251 0.854413
83 2 0.203384 0.795394 0.723083
84 2 0.274663 0.229949 0.260216
85 2 0.00807009 0.723246 0.336837
86 2 0.00191664 0.272041 0.724976
87 2 0.272988 0.307198 0.723323
88 2 0.209984 0.699405 0.303124
89 2 0.530086 0.232319 0.15652
90 2 0.482719 0.743742 0.709336
91 2 0.734394 0.761588 0.739149
92 2 0.795682 0.267131 0.357668
93 2 0.517881 0.706643 0.138488
94 2 0.512299 0.285885 0.670504
95 2 0.749699 0.26931 0.825008
96 2 0.753136 0.685626 0.243408
97 2 0.0723517 0.247293 0.162757
98 2 0.927409 0.77891 0.807754
99 2 0.141388 0.791859 0.70938
100 2 0.331539 0.230802 0.240243
101 2 0.948897 0.749627 0.368061
102 2 0.0605443 0.300773 0.726107
103 2 0.329548 0.259724 0.75317
104 2 0.157166 0.768217 0.279434
105 2 0.588575 0.243642 0.172856
106 2 0.431556 0.802548 0.746735
107 2 0.679937 0.727742 0.690349
108 2 0.850329 0.306218 0.327856
109 2 0.468888 0.653448 0.183489
110 2 0.569843 0.262755 0.655556
111 2 0.810563 0.256511 0.801814
112 2 0.6977 0.697593 0.209505
113 2 0.0966727 0.433289 0.140895
114 2 0.888276 0.585767 0.772747
115 2 0.117566 0.593237 0.64743
116 2 0.364232 0.439213 0.27502
117 2 0.919271 0.931862 0.382783
118 2 0.124433 0.126649 0.694138
119 2 0.343014 0.0825663 0.817502
120 2 0.154362 0.949713 0.201375
121 2 0.618761 0.425277 0.182678
122 2 0.371268 0.65298 0.848296
123 2 0.665098 0.548278 0.660293
124 2 0.865027 0.49506 0.282682
125 2 0.416745 0.781952 0.337835
126 2 0.601641 0.0666065 0.618104
127 2 0.8565 0.0733889 0.817335
128 2 0.666102 0.888737 0.179469
129 2 0.0564267 0.533763 0.154874
130 2 0.925818 0.478453 0.796571
131 2 0.161852 0.504518 0.62409
132 2 0.321474 0.524804 0.317964
133 2 0.957952 0.0321623 0.368005
134 2 0.100264 0.0149284 0.689811
135 2 0.298048 0.996377 0.818701
136 2 0.20663 0.000644058 0.1747
137 2 0.579924 0.530484 0.16929
138 2 0.39559 0.531355 0.841309
139 2 0.707916 0.452074 0.684983
140 2 0.817769 0.579504 0.314405
141 2 0.440543 0.897585 0.362617
142 2 0.563234 0.98218 0.623188
143 2 0.825039 0.973209 0.846283
144 2 0.700767 0.988414 0.180797
145 3 0.0835371 0.475698 0.316281
146 3 0.937361 0.55944 0.643946
147 3 0.151771 0.540992 0.794764
148 3 0.320672 0.485079 0.144973
149 3 0.935 0.965593 0.213999
150 3 0.103514 0.0805952 0.855476
151 3 0.327815 0.0232334 0.65354
152 3 0.186905 0.00632231 0.348547
153 3 0.580345 0.45781 0.328228
154 3 0.366011 0.593691 0.686116
155 3 0.67346 0.511098 0.831499
156 3 0.817396 0.493565 0.152516
157 3 0.405984 0.882882 0.20389
158 3 0.5783 0.0395533 0.782295
159 3 0.818446 0.0274367 0.677782
160 3 0.682682 0.946281 0.343253
161 3 0.0678979 0.279292 0.331881
162 3 0.975168 0.73332 0.677203
163 3 0.174969 0.729566 0.853876
164 3 0.293874 0.300447 0.106571
165 3 0.963543 0.770043 0.192962
166 3 0.0373083 0.237548 0.876467
167 3 0.307014 0.215628 0.59571
168 3 0.196601 0.819626 0.426134
169 3 0.554555 0.270531 0.323952
170 3 0.424114 0.715048 0.597331
171 3 0.684852 0.709455 0.861728
172 3 0.806328 0.298987 0.181174
173 3 0.455897 0.773247 0.0597352
174 3 0.548836 0.226817 0.816809
175 3 0.771494 0.209611 0.662387
176 3 0.708144 0.746217 0.37511
177 3 0.0307044 0.384366 0.166096
178 3 0.952294 0.623875 0.845971
179 3 0.183964 0.658793 0.645143
180 3 0.302989 0.366098 0.313627
181 3 0.98887 0.877053 0.369583
182 3 0.0538894 0.148534 0.679471
183 3 0.278815 0.154071 0.78803
184 3 0.209278 0.843772 0.213887
185 3 0.550677 0.383571 0.1395
186 3 0.44143 0.652197 0.802044
187 3 0.729886 0.605182 0.699711
188 3 0.806926 0.425739 0.35588
189 3 0.484535 0.788377 0.273504
190 3 0.531896 0.134692 0.620996
191 3 0.786157 0.122137 0.857596
192 3 0.733097 0.833165 0.191276
193 3 0.120733 0.561541 0.328376
194 3 0.90254 0.497651 0.573808
195 3 0.113964 0.459546 0.820801
196 3 0.352269 0.570967 0.106072
197 3 0.896051 0.0524474 0.189899
198 3 0.0953901 0.976215 0.911394
199 3 0.369252 0.938515 0.663225
200 3 0.153023 0.104661 0.353334
201 3 0.616987 0.527587 0.386731
202 3 0.370545 0.482787 0.634396
203 3 0.637613 0.426879 0.832361
204 3 0.841917 0.568257 0.0719528
205 3 0.405792 0.00391334 0.203082
206 3 0.620364 0.957801 0.799645
207 3 0.864018 0.963894 0.632235
208 3 0.637884 0.0219847 0.355644
209 3 0.0304265 0.280832 0.425497
210 3 0.0274761 0.692084 0.66529
211 3 0.226575 0.711599 0.891225
212 3 0.24325 0.34039 0.0731526
213 3 0.00653024 0.753248 0.115508
214 3 0.99249 0.187642 0.926029
215 3 0.259421 0.207066 0.530248
216 3 0.249212 0.800845 0.464789
217 3 0.506443 0.298493 0.379654
218 3 0.460415 0.641943 0.533649