LAMMPS data file via write_data, version 15 Apr 2020, timestep = 80000

336 atoms
4 atom types

4.6854126359107795e-01 2.5895459056809305e+01 xlo xhi
-1.9884428278803057e+00 1.3562443186480618e+01 ylo yhi
-8.9480604014653053e-01 1.1603805673946615e+01 zlo zhi
-1.6649170011749910e+00 -6.3496230876123694e-01 8.7918787254620445e-01 xy xz yz

Masses

1 12.0107
2 1.00794
3 14.0067
4 15.9994

Atoms # full

1 1 1 2.2918037336712070e-02 4.1862219311347211e+00 4.2959907568235476e+00 2.1720123056619371e+00 0 0 0
2 1 1 2.6841434450686687e-02 2.4291914614055187e+01 9.7045609375460717e+00 6.2430069990038728e+00 0 0 0
3 1 1 -1.6880317712765616e-02 4.1693220542042209e+00 8.6598884415959567e+00 8.7587389881175159e+00 0 0 0
4 1 1 2.9283822574327392e-02 8.4665069879455022e+00 3.2937884912894422e+00 3.1938501273701525e-01 0 0 0
5 1 1 1.1495030997345876e-02 2.2171245868663529e+01 1.3111564050902997e+01 9.9051582944964811e-01 0 0 0
6 1 1 1.5517243203349063e-02 2.4305667254317612e+01 3.0993235285408653e+00 7.5071187658665490e+00 -1 0 0
7 1 1 1.1157144973027007e-02 6.5872441718666854e+00 3.1334344319107066e-01 7.5539034584451255e+00 0 0 0
8 1 1 3.0258268888450172e-03 2.5038178537439730e+00 1.1437344490435535e+01 3.4123134566620097e+00 0 0 0
9 1 1 3.1592703074977690e-02 1.5863900026716680e+01 3.9590830183644066e+00 4.0298917955171056e+00 0 0 0
10 1 1 1.2540043626392827e-02 1.1472560491591768e+01 7.8362443615414463e+00 9.5855494881309866e+00 0 0 0
11 1 1 2.9525568018107969e-02 1.7269287533022634e+01 7.6468909023520624e+00 9.5665319562531810e+00 0 0 0
12 1 1 1.2943439585068224e-03 2.2413169854726171e+01 3.7836196311186274e+00 1.4673532841748766e+00 0 0 0
13 1 1 1.6881716433501601e-03 7.8132731698522626e+00 9.6105985407052614e+00 2.3573501638014420e+00 0 0 0
14 1 1 4.5585116503940842e-02 1.2419574421848948e+01 -4.4474561424937020e-01 9.4919865330511222e+00 0 0 0
15 1 1 9.7080857350429171e-03 1.8523592656108047e+01 -6.9462102644525725e-01 8.3845416293380861e+00 0 0 0
16 1 1 2.6075039537591452e-02 1.5740188875182664e+01 -1.6779860949249445e+00 2.4559438128088167e+00 0 1 0
17 1 1 1.5365147894746942e-02 3.4773664164758835e+00 2.1376315660342780e+00 3.3805192611231254e+00 0 0 0
18 1 1 4.8120023160673861e-02 -1.1000744497597215e+00 1.1723029764480160e+01 7.8459912495531405e+00 1 0 0
19 1 1 3.0151566463584009e-02 6.1566003703798700e+00 9.2821019399438160e+00 7.2564230229995772e+00 0 0 0
20 1 1 1.4978080588501117e-02 9.7145289477583479e+00 1.7385484087825738e+00 1.7462987897757611e+00 0 0 0
21 1 1 -8.7306183910435785e-03 2.0783384101579678e+01 1.0980252146990006e+01 8.6263374944926263e-01 0 0 0
22 1 1 3.5985041298236542e-02 4.9156686065327543e-01 1.0522044931264163e+00 7.8438918814938550e+00 0 0 0
23 1 1 4.7025509812884891e-02 6.0349633571655668e+00 2.2173613779271690e+00 9.2268634406806793e+00 0 0 0
24 1 1 5.8812292532328357e-03 1.9895434968486061e+00 9.3110116808602115e+00 1.8909622671212674e+00 0 0 0
25 1 1 1.8419549506324781e-02 1.6058636867646403e+01 2.8093241985307911e+00 1.6856394485180171e+00 0 0 0
26 1 1 2.5015348052874736e-02 1.1259119072335233e+01 9.2923152744552180e+00 7.4361816403584431e+00 0 0 0
27 1 1 1.9842238622541572e-02 1.7242783551881928e+01 8.5938911295006370e+00 7.1201899363114922e+00 0 0 0
28 1 1 3.8642914054270713e-02 2.1962629379918877e+01 2.4704245199698658e+00 3.6605411516578616e+00 0 0 0
29 1 1 4.0086529518103743e-02 7.6622109274549608e+00 1.2132151791172957e+01 2.2680811031361707e+00 0 0 0
30 1 1 1.5105366548792361e-02 1.2749274434145194e+01 2.0486041320104258e+00 9.3696854970267154e+00 0 0 0
31 1 1 4.6201166909686987e-02 1.8705154568890840e+01 1.3675798160176744e+00 6.8497093008519512e+00 0 0 0
32 1 1 1.1151166591630152e-02 1.4200864111291107e+01 1.1757531775171516e+01 3.9019239934688894e+00 0 0 0
33 1 1 6.4114540320904176e-04 3.1668916297340011e+00 2.3475625568964693e+00 8.0684110344509063e-01 0 0 0
34 1 1 1.5327229455604635e-03 2.3948827661770583e+01 9.3721468005121942e+00 8.7908588208720477e+00 0 0 0
35 1 1 2.8849310486675012e-02 4.7090495465610962e+00 7.3374566778294952e+00 6.5836206015962784e+00 0 0 0
36 1 1 2.0422610169784222e-02 8.9095234417282505e+00 3.8823372068110071e+00 2.7546950707552784e+00 0 0 0
37 1 1 2.1671635420023490e-02 2.0987578597041900e+01 1.2142623239486351e+01 3.1158122964034902e+00 0 0 0
38 1 1 4.0611714641275304e-02 4.4058852624129602e-01 3.0343111806749317e+00 9.4637773607042330e+00 0 0 0
39 1 1 2.1515386949695743e-02 6.3636857287894113e+00 -1.2587952699068006e-01 9.9764454610403170e+00 0 0 0
40 1 1 4.5946002447809810e-03 2.0057655020196208e+00 1.1659518105777776e+01 8.2136616922822214e-01 0 0 0
41 1 1 3.6094474936376873e-02 1.6026674143328325e+01 5.4268219064834753e+00 1.9231823388480174e+00 0 0 0
42 1 1 7.2275511310716051e-02 1.1202225392814007e+01 1.0375683109004974e+01 9.7625650515392977e+00 0 0 0
43 1 1 1.7650743687848858e-02 1.8967459181262601e+01 6.8638764571141806e+00 7.7355708482394601e+00 0 0 0
44 1 1 -2.1143951364759259e-03 2.2896089542887868e+01 4.9118220233067085e+00 3.6475084761044974e+00 0 0 0
45 1 1 5.6223716486235482e-02 8.1668604143688519e+00 1.0868350868552813e+01 9.0588794582947663e-02 0 0 0
46 1 1 1.3489683122832569e-02 1.2311653836207324e+01 6.4115903759281467e-01 7.2368023324305533e+00 0 0 0
47 1 1 7.4365545281279387e-03 1.9005924068532462e+01 1.5819989534331835e+00 9.4500237479544928e+00 0 0 0
48 1 1 1.0241202043470857e-02 1.4220461137151270e+01 1.1600216908429724e+01 1.3123295442163592e+00 0 0 0
49 1 2 1.6971470978080580e-01 5.2306843006332180e+00 4.0634938249808288e+00 2.0230054707222735e+00 0 0 0
50 1 2 1.6314083330774992e-01 2.3185918243099518e+01 9.7810382399940021e+00 5.8995755529883871e+00 0 0 0
51 1 2 2.1941550780886671e-01 3.4362934842210384e+00 9.3929729439033895e+00 8.3485341853482780e+00 0 0 0
52 1 2 1.3097205419939351e-01 9.4040620794499663e+00 3.7855507016887522e+00 -5.6131374803104817e-02 0 0 0
53 1 2 1.7418050119119211e-01 2.3081723145909589e+01 -1.6576688179622545e+00 7.9732060592053045e-01 0 1 0
54 1 2 1.5048398136594560e-01 2.4853511053203931e+01 3.7226062043612522e+00 6.7753165044592576e+00 -1 0 0
55 1 2 1.5269661348912883e-01 7.6952048776150788e+00 2.9888581249237500e-01 7.6702592214705341e+00 0 0 0
56 1 2 1.5763078452980356e-01 1.5462392511676348e+00 1.1620426828354473e+01 3.8343494868158121e+00 0 0 0
57 1 2 1.4015805628500386e-01 1.6922915639591142e+01 3.8257104121372913e+00 4.3014531978689030e+00 0 0 0
58 1 2 1.6321383964720759e-01 1.0420865517884687e+01 7.5236849709479188e+00 9.6549923376781717e+00 0 0 0
59 1 2 1.7636210952637540e-01 1.6376874035697398e+01 6.8825041316574183e+00 9.6376318764589222e+00 0 0 0
60 1 2 1.8185332839897381e-01 2.3386923305431100e+01 3.3943526682294829e+00 1.1915705735183493e+00 0 0 0
61 1 2 1.9216682441858313e-01 6.7866942609508154e+00 9.3602672000406741e+00 2.1996509759076255e+00 0 0 0
62 1 2 1.6779705408569112e-01 1.3483048536060068e+01 -7.2560392414133057e-01 9.2741893263242776e+00 0 0 0
63 1 2 1.5258415326416913e-01 1.9539274200314068e+01 -1.0810299491017186e+00 8.2399062182313489e+00 0 0 0
64 1 2 1.6312815195984487e-01 1.4668247527487546e+01 -1.6494525355137872e+00 2.2779736972201414e+00 0 1 0
65 1 2 2.0177749717178201e-01 4.1326373511194223e+00 5.4427019165331521e+00 2.1800761590944280e+00 0 0 0
66 1 2 1.8052877106791967e-01 -6.7121769884256288e-01 9.2386935958047705e+00 5.3744296514246521e+00 1 0 0
67 1 2 2.6973810642620105e-01 3.9807234092609161e+00 8.4804899150395521e+00 9.8634823843691581e+00 0 0 -1
68 1 2 1.7852552625896045e-01 7.7633556491516229e+00 3.4012051597960902e+00 -5.0633392744715233e-01 0 0 1
69 1 2 2.1815806758935194e-01 2.3134992444260604e+01 1.3558450458276964e+01 6.4213145639354630e-01 0 0 1
70 1 2 2.0988336152012543e-01 2.3211047228799892e+01 3.2353472154005978e+00 7.2730844795766316e+00 -1 0 -1
71 1 2 2.0968045126391768e-01 6.3247363380205881e+00 -3.3112775668249439e-02 6.5638910264018122e+00 0 0 0
72 1 2 1.8729026634190268e-01 3.1891219255272278e+00 1.1765361747880812e+01 4.1488532368799369e+00 0 0 0
73 1 2 1.8531967930940524e-01 1.5394373629192412e+01 3.9072570590280211e+00 4.9869909777231225e+00 0 0 0
74 1 2 2.0614073171467939e-01 1.2001438951947812e+01 7.0745350108375966e+00 1.0133960868726229e+01 0 0 0
75 1 2 1.8128222624245344e-01 1.7313180898887143e+01 8.0252405104561415e+00 1.0596406252908087e+01 0 0 -1
76 1 2 2.1862522646347701e-01 2.1981550126194364e+01 3.8853663133081682e+00 4.6428325724692265e-01 0 0 1
77 1 2 2.1708115566988387e-01 8.1616781958939750e+00 8.8495523210930234e+00 3.0397779546607078e+00 0 0 1
78 1 2 1.4787697411135331e-01 1.0510866122951787e+01 1.4211360510844113e+01 1.0136360109060037e+01 0 -1 -1
79 1 2 2.3841692947549006e-01 1.6262246737557412e+01 1.3931385199455304e+01 8.5760950280526878e+00 0 -1 0
80 1 2 1.8743424721793450e-01 1.6042195521012616e+01 -6.1896544002878073e-01 2.3476834294508326e+00 0 1 0
81 1 2 2.0882182861446152e-01 2.9799233277842285e+00 1.7483086269819434e+00 4.3270881074483594e+00 1 0 0
82 1 2 1.6987911422616164e-01 -7.4740852186305895e-01 1.2738185292519447e+01 8.0127631417142968e+00 0 0 0
83 1 2 1.6549041631247557e-01 7.1505732947203642e+00 9.7106149753487028e+00 7.2303185018580720e+00 0 0 0
84 1 2 1.9862491453171999e-01 9.9797505688725501e+00 7.1569217736139690e-01 2.0287072629740281e+00 0 0 0
85 1 2 2.2011739076052014e-01 2.0927923340104101e+01 1.0025110530004527e+01 4.1854925107498175e-01 -1 0 0
86 1 2 1.8109169511600870e-01 4.9768191143039953e-01 -5.5564373639905629e-02 7.8143248226604705e+00 1 0 0
87 1 2 1.8190585367211332e-01 5.4232771215243076e+00 3.1738526224079378e+00 9.3336680306456934e+00 0 0 0
88 1 2 2.1510714511869092e-01 2.3317582883850312e+00 8.2840046016202731e+00 1.8112515729411665e+00 0 0 0
89 1 2 1.7361016608773647e-01 1.5704981961177834e+01 1.9634520248530429e+00 1.0561450662801792e+00 0 0 0
90 1 2 2.0873972130164362e-01 1.1673766366538969e+01 9.3658594757053599e+00 6.4193625822692457e+00 0 0 0
91 1 2 2.2136384139944032e-01 1.7054722059895752e+01 9.4203272587827858e+00 6.4040106950986857e+00 0 0 0
92 1 2 1.5740716641605673e-01 2.1332648463864651e+01 1.7458697621825525e+00 4.1503158248722087e+00 0 0 0
93 1 2 1.8153420165296463e-01 7.9343570347588486e+00 1.3035682424788298e+01 2.8586625907269290e+00 0 0 0
94 1 2 2.0362160146713754e-01 1.2440343129834547e+01 3.0479829305174881e+00 9.8366912791859136e+00 0 0 0
95 1 2 1.5658264337763061e-01 1.8304452616106396e+01 1.8748040185251797e+00 5.9419505628724290e+00 0 0 0
96 1 2 2.3515435326268685e-01 1.4713612992706855e+01 1.1324314438482068e+01 4.7584379278301601e+00 0 0 0
97 1 2 1.7806939404501493e-01 4.4412513884077560e+00 1.6905010780742225e+00 3.4409713933808170e+00 0 0 0
98 1 2 1.1844660495082360e-01 2.3223786667551664e+01 1.1837692933547237e+01 7.6405863312177136e+00 0 0 0
99 1 2 1.4211016770440310e-01 5.5660140862417888e+00 9.9292892287148895e+00 6.6537278316492081e+00 0 0 0
100 1 2 1.5819308590231704e-01 1.0710419556929180e+01 2.1085815882734291e+00 1.4832318980895600e+00 0 0 0
101 1 2 1.7395216028321939e-01 1.9776714980139964e+01 1.1373995464788292e+01 5.2501708799254687e-01 0 0 0
102 1 2 1.6877562466385360e-01 1.4529119100172778e+00 1.3606000415760762e+00 7.3360278554160221e+00 0 0 0
103 1 2 1.3025236510866556e-01 7.0569017463996397e+00 2.6148405325082500e+00 9.4895914088169206e+00 0 0 0
104 1 2 1.5540519496173594e-01 9.2834195177979695e-01 9.2854174330371553e+00 2.1217474285106177e+00 0 0 0
105 1 2 1.7838858810366792e-01 1.7144441687250119e+01 2.6411081578830498e+00 1.7429966347782426e+00 0 0 0
106 1 2 1.6373463041029881e-01 1.0141995834403390e+01 9.2765224455226818e+00 7.2007963790700646e+00 0 0 0
107 1 2 1.9080318318412967e-01 1.6593190390855597e+01 7.7520693048090727e+00 6.7156639997828087e+00 0 0 0
108 1 2 1.6199123779473112e-01 2.2903853672859963e+01 1.8822691846388215e+00 3.7549708499345407e+00 0 0 0
109 1 2 1.3544398719145340e-01 6.5272657048939688e+00 1.2170440203874859e+01 2.1401231036386998e+00 0 0 0
110 1 2 1.7806431042348023e-01 1.3827287239324431e+01 2.0931667028373049e+00 9.4555821815168883e+00 0 0 0
111 1 2 1.3799953481177399e-01 1.9773484104706863e+01 1.1857592564590482e+00 6.4746625234123956e+00 0 0 0
112 1 2 1.7199336861624404e-01 1.3081302450723681e+01 1.1591791163285027e+01 4.0885138010313655e+00 0 0 0
113 1 2 2.1443110569288837e-01 4.0706270788495669e+00 1.8741628614404942e+00 5.3287504490611304e-01 0 0 0
114 1 2 1.5782111058132581e-01 2.2868364850287630e+01 9.3311962788584530e+00 8.7439738479809233e+00 0 0 0
115 1 2 1.5896059902077053e-01 4.0864483477643070e+00 7.9119187956700490e+00 5.8405636552876778e+00 0 0 0
116 1 2 1.5768974808828060e-01 9.9184249516072303e+00 4.3589150539774622e+00 2.4748172472410892e+00 0 0 0
117 1 2 1.6598702267499532e-01 2.0103189992372972e+01 1.2710228874814620e+01 2.9394491418040900e+00 0 0 0
118 1 2 1.5527374235598371e-01 1.2054901112616885e+00 3.6134416067290758e+00 8.8764251116008204e+00 0 0 0
119 1 2 1.5507912794689277e-01 7.4261927669990477e+00 6.8184672827311665e-03 1.0058929757266029e+01 0 0 0
120 1 2 1.9840291619506356e-01 8.9034901919169052e-01 1.1901128443664678e+01 8.1241944666749055e-01 0 0 0
121 1 2 1.4902203678688383e-01 1.7112733700117406e+01 5.6654190526808463e+00 1.9014804442917712e+00 0 0 0
122 1 2 1.3522287634803998e-01 1.0061416223871824e+01 1.0421738303204689e+01 9.8637756766582907e+00 0 0 0
123 1 2 1.8567388351773201e-01 1.8496473966625498e+01 5.9104058458637772e+00 7.2741271590780556e+00 0 0 0
124 1 2 1.6346149392345613e-01 2.3906167952280715e+01 4.6398136633682441e+00 3.7472840260602140e+00 0 0 0
125 1 2 1.5734579321758038e-01 7.1221809530763949e+00 1.0884518529665007e+01 -4.1833934665354389e-01 0 0 0
126 1 2 1.7682961527555144e-01 1.3343168289558887e+01 3.9233219852408041e-01 7.0258878025843909e+00 0 0 0
127 1 2 2.0829750799176083e-01 2.0153970999142746e+01 1.4237803311823960e+00 9.3377058336926133e+00 0 0 0
128 1 2 1.6599245197051801e-01 1.3126420192202653e+01 1.1425895446840316e+01 1.1507335885688557e+00 0 0 0
129 1 2 1.9317571203211736e-01 2.4713813990972842e+00 2.0814692989654766e+00 -2.5416273999894434e-02 0 0 0
130 1 2 2.2999412386881990e-01 2.4250276478740908e+01 8.7603185156071302e+00 9.6454197039814051e+00 0 0 0
131 1 2 1.7866542710479288e-01 4.7029812886617819e+00 6.3431295921276565e+00 6.1454951513187472e+00 0 0 0
132 1 2 1.9325784409358371e-01 8.4324890992104606e+00 4.3121179480714344e+00 3.6694901477950550e+00 0 0 0
133 1 2 1.7783827617982700e-01 2.1081865896752191e+01 1.2015600385270693e+01 4.1780088043470176e+00 0 0 0
134 1 2 1.6463010186441990e-01 6.7154591984670153e-01 3.3372810517984215e+00 1.0481257818794253e+01 0 0 0
135 1 2 2.0448762669606091e-01 6.0903547459997842e+00 -7.5507044618255748e-01 1.0835539354933850e+01 0 0 0
136 1 2 2.2296384789281054e-01 2.4109085964392003e+00 1.2206285854903927e+01 -7.9903541629742891e-02 0 0 0
137 1 2 1.7817655837245683e-01 1.5624822820298535e+01 6.3659291162493741e+00 1.4515780868801169e+00 0 0 0
138 1 2 1.6319157327522416e-01 1.1529317224325883e+01 1.1329214010296583e+01 1.0414746399839293e+01 0 0 0
139 1 2 2.0834463934323247e-01 2.0091857352368173e+01 6.6796871527967365e+00 7.7229846127963437e+00 0 0 0
140 1 2 2.4023364666386371e-01 2.2799690609318233e+01 5.8322179150106752e+00 4.1937328761403334e+00 0 0 0
141 1 2 1.5315777405696268e-01 8.8458402894955483e+00 1.0855067720969981e+01 -8.2148552236419148e-01 0 0 0
142 1 2 1.9841030338502116e-01 1.1844225884898316e+01 6.0632337145709059e-01 6.2311977963621654e+00 0 0 0
143 1 2 2.2360479008850340e-01 1.8797576392482600e+01 2.1572309669932608e+00 1.0348945495547554e+01 0 0 0
144 1 2 2.3052511698180378e-01 1.4796397440467212e+01 1.0971573563780408e+01 5.5391324944681664e-01 0 0 0
145 1 3 -1.6005175006058445e-01 3.4076470712170961e+00 3.8912810362719563e+00 8.9461166521854563e-01 0 0 0
146 1 3 -1.5534873909052593e-01 2.4371050251248604e+01 8.7197421583283798e+00 7.4128307525687642e+00 0 0 0
147 1 3 -1.5321133482033872e-01 3.8793215041829843e+00 7.3683482977910622e+00 7.9280743813235528e+00 0 0 0
148 1 3 -1.8790243321302516e-01 7.9366301137360820e+00 4.1466632348581927e+00 1.5711989361856964e+00 0 0 0
149 1 3 -1.6684436550980275e-01 2.2177995057979246e+01 1.3048837084517734e+01 2.5456132742820041e+00 0 0 0
150 1 3 -1.6615570697095844e-01 2.4482671238529388e+01 3.5823164873689537e+00 8.9434657721212485e+00 -1 0 0
151 1 3 -1.5454794848489800e-01 6.1307964724427935e+00 -7.6681456142853577e-01 8.5802061669289849e+00 0 0 0
152 1 3 -1.7250179332865329e-01 2.6173005335717203e+00 1.2314929648473122e+01 2.0779326427421543e+00 0 0 0
153 1 3 -1.5643429426090771e-01 1.5573046495637159e+01 5.3563177892137883e+00 3.4163259557694046e+00 0 0 0
154 1 3 -1.7593385267252071e-01 1.1659672591552095e+01 9.1198471923243769e+00 1.0471394130428596e+01 0 0 0
155 1 3 -1.7511869891086615e-01 1.8618670950855442e+01 6.9107839136057407e+00 9.2942613741534696e+00 0 0 0
156 1 3 -1.4091860246289573e-01 2.2546168668574882e+01 5.1650187933743812e+00 2.1224159339395610e+00 0 0 0
157 1 3 -1.5810721637292066e-01 8.2863433698644151e+00 9.5426960493736903e+00 8.5086407407746267e-01 0 0 0
158 1 3 -1.6353233142418253e-01 1.1685956514148018e+01 -4.5533841060512747e-01 8.1304094148328794e+00 0 0 0
159 1 3 -1.6449700604396233e-01 1.8541912500719054e+01 1.2747593344395902e-01 9.7047878490107475e+00 0 0 0
160 1 3 -1.5691650838108542e-01 1.4536218618124282e+01 1.3115765391155378e+01 1.1802013369673032e+00 0 0 0
161 1 3 -1.7657393621571330e-01 3.7731674333169072e+00 3.6653714898159357e+00 3.5395752774585780e+00 0 0 0
162 1 3 -1.9030151351191099e-01 -5.7426006787640849e-01 1.1157392262073966e+01 6.4633873848888115e+00 1 0 0
163 1 3 -1.6793444973691773e-01 5.5748554855652070e+00 9.3647850022363368e+00 8.6762709958582462e+00 0 0 0
164 1 3 -1.7782791414483162e-01 8.7302284689096954e+00 1.8100170436805958e+00 5.2606886935519448e-01 0 0 0
165 1 3 -1.8059576340948036e-01 2.1830920189923887e+01 1.1870155943259354e+01 1.2061825842831819e-01 0 0 0
166 1 3 -1.8026060053938273e-01 2.4667625429775125e+01 1.6018985526264076e+00 7.1167694725097626e+00 -1 0 0
167 1 3 -1.6502630027576690e-01 5.9999045044445607e+00 1.7555141907949352e+00 7.7489968230435853e+00 0 0 0
168 1 3 -1.8806260567267125e-01 2.6249995661854060e+00 9.9089573092617993e+00 3.2055786285988512e+00 0 0 0
169 1 3 -1.8122875601811816e-01 1.5564159408151564e+01 2.6591394973634994e+00 3.1424124902154693e+00 0 0 0
170 1 3 -1.6644398945327321e-01 1.1748637136625817e+01 7.9296992498294898e+00 8.0380521120250386e+00 0 0 0
171 1 3 -1.5784573091849652e-01 1.6816798066744013e+01 8.7768363838486678e+00 8.6346401821248477e+00 0 0 0
172 1 3 -1.6759964029221211e-01 2.1605623172913656e+01 2.6203391767384066e+00 2.1672164875006521e+00 0 0 0
173 1 3 -1.7777240306546599e-01 7.9896627613314104e+00 1.0903771932921968e+01 3.1700276680084380e+00 0 0 0
174 1 3 -1.6836294109203676e-01 1.2431973324398101e+01 9.0258874907073539e-01 1.0340512897716200e+01 0 0 0
175 1 3 -1.6877296331571329e-01 1.8071896442507878e+01 -1.3005497604948513e-02 6.9975970947573112e+00 0 0 0
176 1 3 -1.6338197692222736e-01 1.4432534891460248e+01 1.3274441995423619e+01 3.8465644409261879e+00 0 0 0
177 1 3 -1.4483342266756957e-01 2.6800069697538182e+00 1.6207861150952265e+00 2.0941588631271415e+00 0 0 0
178 1 3 -1.7128621474406636e-01 -1.0260384263028239e+00 1.0805436350057576e+01 9.1375268505742593e+00 1 0 0
179 1 3 -1.8560746577166426e-01 6.1777513221699047e+00 7.8642892027252262e+00 6.5427537135079277e+00 0 0 0
180 1 3 -1.8264188512760809e-01 9.3222829700148306e+00 2.4245919946171366e+00 3.0978568769838200e+00 0 0 0
181 1 3 -1.5863083481592238e-01 2.0726616259135199e+01 1.0783083062121367e+01 2.4611492864474256e+00 0 0 0
182 1 3 -1.7821712327282799e-01 8.4031035159433609e-01 1.5557242396213309e+00 9.2962057069872692e+00 0 0 0
183 1 3 -1.7625708725053174e-01 5.7356239591222469e+00 1.2308455119506050e+00 1.0382143768565419e+01 0 0 0
184 1 3 -1.5533722712920495e-01 2.2045895484866027e+00 1.0097997848578926e+01 5.6450540841732066e-01 0 0 0
185 1 3 -1.7221237210336143e-01 1.5800266486845576e+01 4.2038014638354202e+00 9.6649255243122800e-01 0 0 0
186 1 3 -1.8649402395083065e-01 1.1419561182858738e+01 1.0620824571018904e+01 8.2379630992652313e+00 0 0 0
187 1 3 -1.6376279838331470e-01 1.8660392127792509e+01 8.0520126216732546e+00 6.8460135060191423e+00 0 0 0
188 1 3 -1.9462088841565134e-01 2.2091826441095076e+01 3.8163106212806612e+00 4.4132119519220145e+00 0 0 0
189 1 3 -1.7545496748349712e-01 8.4018145788734664e+00 1.2185591706021249e+01 8.6847379367672661e-01 0 0 0
190 1 3 -1.6615027344374139e-01 1.2297883192436267e+01 2.1062988968218290e+00 7.8568099937385067e+00 0 0 0
191 1 3 -1.6308076396239185e-01 1.8669160452529468e+01 2.3538919695811185e+00 8.1097079826604617e+00 0 0 0
192 1 3 -1.7982826057012946e-01 1.4640775249203369e+01 1.0924422584739705e+01 2.6556056634982386e+00 0 0 0
193 1 3 6.6382894681514412e-02 4.1633640947802419e+00 4.5188826145729628e+00 -3.7952069051816584e-01 0 0 0
194 1 3 8.9328821725344273e-02 2.3829021256774137e+01 7.2147060472411795e+00 7.1764111498614813e+00 0 0 0
195 1 3 8.1599809697475295e-02 2.3143075543659548e+00 7.0244434918535603e+00 7.7856892703063174e+00 0 0 0
196 1 3 7.2415312905922069e-02 7.8374881574775825e+00 5.7084552054375699e+00 1.1686397985481887e+00 0 0 0
197 1 3 6.4115566371884342e-02 2.3897370871300808e+01 -1.0578933589656141e+00 3.1925225730581843e+00 0 0 0
198 1 3 1.0209481717102820e-01 2.3230183962441359e+01 3.1145446158825463e+00 9.8161362291961378e+00 -1 1 0
199 1 3 8.0602778214543647e-02 5.0980289167155091e+00 1.3289398854924054e+01 8.3977539347855323e+00 0 0 0
200 1 3 7.0547691456054079e-02 1.8793995099648930e+00 1.3705088407625158e+01 2.3812648004423553e+00 0 -1 0
201 1 3 5.6121632195339624e-02 1.6317874187338315e+01 6.5833158183262093e+00 4.1224694986645245e+00 0 0 0
202 1 3 9.4859656852293334e-02 1.3218876816038760e+01 9.1772994991912071e+00 1.0962468472822172e+01 0 0 0
203 1 3 6.6682695827463945e-02 1.8858391434251466e+01 5.4936402162805038e+00 9.9780811854242657e+00 0 0 0
204 1 3 7.3159881633739543e-02 2.3774030110224206e+01 5.9974064247827474e+00 1.5151615177731141e+00 0 0 0
205 1 3 9.7841752114682351e-02 9.7883116143552726e+00 8.9508553900768408e+00 8.5879174579389317e-01 0 -1 0
206 1 3 6.6674685781226123e-02 1.0072531489589220e+01 1.3680493968862478e+01 7.3167805979632359e+00 0 0 0
207 1 3 6.9767415808240404e-02 1.9379266679321802e+01 -4.6073024687251518e-01 1.0940034447534678e+01 0 1 0
208 1 3 7.7281134716312330e-02 1.5505785872448495e+01 -1.8360325573326621e+00 -1.5794058852419390e-01 0 0 0
209 1 3 9.0621990911447292e-02 2.4264142432333071e+00 4.3914910235994071e+00 4.0187431282382304e+00 0 0 0
210 1 3 7.8247386152105997e-02 9.9992893033066377e-01 1.1142191198629302e+01 6.6110644140192649e+00 1 0 0
211 1 3 9.4574011401308652e-02 6.5396965103584828e+00 8.7943831306906546e+00 9.8567450117163133e+00 0 0 -1
212 1 3 9.7038438313164846e-02 7.4221231073323652e+00 8.5597658326363879e-01 7.2857875806106631e-01 0 0 1
213 1 3 8.5068033121894357e-02 2.3157095111125667e+01 1.0964148742496205e+01 -9.9644584224389154e-02 0 0 1
214 1 3 9.0867462142498717e-02 2.3363110034450777e+01 7.1506883331006055e-01 7.3524407857239602e+00 -1 0 -1
215 1 3 7.3106983228773903e-02 4.4376255032150871e+00 1.6717464255189478e+00 7.3568371727927406e+00 0 0 0
216 1 3 7.1608063136202035e-02 4.1269582958691409e+00 9.3388629598819541e+00 3.3447304299960736e+00 0 0 0
217 1 3 8.5204799994257147e-02 1.3969057188929828e+01 2.3855831420616438e+00 3.1964800478903594e+00 0 0 0
218 1 3 9.6291919576298346e-02 1.3319924952424257e+01 7.8065961321995250e+00 7.7514223238679936e+00 0 0 0
219 1 3 9.6507600911907382e-02 1.7503385327995971e+01 1.0122436698922712e+01 9.2100095860015863e+00 0 0 -1
220 1 3 8.5753433348489103e-02 2.0020122613931207e+01 2.8113694300613519e+00 2.0092323497524962e+00 0 0 1
221 1 3 9.8191051392709019e-02 9.3312858935998246e+00 1.0974633377948864e+01 4.0940259086242454e+00 0 0 1
222 1 3 9.2626433227113697e-02 1.1006525576088702e+01 1.1347184394068730e+00 1.1034595140676767e+01 0 0 -1
223 1 3 8.8508809927548476e-02 1.6482242912414154e+01 1.1374216659157099e-01 6.9606633677747567e+00 0 0 0
224 1 3 9.6319068304647218e-02 1.6016600349569167e+01 1.3585876724412365e+01 4.1152244464638565e+00 0 0 0
225 1 3 9.8343056241296509e-02 1.1242847010222303e+00 1.9144322268107823e+00 2.3338559237913672e+00 1 0 0
226 1 3 9.9787054327174024e-02 4.7895061218090229e-01 1.0698875928665069e+01 9.6753081077618965e+00 0 0 0
227 1 3 9.2040867965467121e-02 7.2258368772842294e+00 6.8517678184151265e+00 7.1930355473323377e+00 0 0 0
228 1 3 9.1107960633859203e-02 8.1206776087851367e+00 1.6034553191273844e+00 3.7443884139717065e+00 0 0 0
229 1 3 8.9207618850079218e-02 2.1924007809411538e+01 9.7911731372665791e+00 2.8796130413597849e+00 -1 0 0
230 1 3 1.0142407046313381e-01 4.8831288493662750e-02 7.2421516280533549e-01 1.0420017796724911e+01 1 0 0
231 1 3 9.6866468252363586e-02 4.1513870939363988e+00 1.1984044676967232e+00 1.0730974724406535e+01 0 0 0
232 1 3 9.4966394885526176e-02 3.6481083504430698e+00 9.9083010890491785e+00 -5.6450967691725307e-02 0 0 0
233 1 3 8.3127468207502206e-02 1.4323979103957351e+01 4.1482270398130296e+00 3.6747924973387214e-01 0 0 0
234 1 3 1.0706488556467163e-01 1.2849474858977114e+01 1.1290448419555409e+01 7.9116068135077242e+00 0 0 0
235 1 3 9.7076196805332166e-02 1.9837048994178325e+01 9.1939326233574743e+00 6.8544318605171348e+00 0 0 0
236 1 3 8.1609775214345162e-02 2.0639709000848750e+01 4.4884485206885838e+00 4.7552649689397812e+00 0 0 0
237 1 3 8.5616301358694802e-02 9.9708065414003872e+00 1.2470020569524099e+01 9.9338314866531374e-01 0 0 0
238 1 3 9.2016456622571102e-02 1.0923404563249790e+01 2.8876658224764586e+00 7.7690698654353856e+00 0 0 0
239 1 3 8.2252593113743000e-02 1.7166345339266950e+01 2.8203006068630083e+00 8.0766430486211771e+00 0 0 0
240 1 3 9.4058970757264576e-02 1.6250939825265991e+01 1.0775947828719181e+01 2.7327606443371799e+00 0 0 0
241 1 4 -1.1317702930054620e-01 2.9403684628400457e+00 6.3291230834189705e+00 1.1430894877093079e+01 0 0 -1
242 1 4 -1.7838319142280970e-01 2.3734734817528452e+01 6.7482842759944344e+00 5.9930005088539913e+00 0 0 0
243 1 4 -1.3355510437758050e-01 1.6932132904390571e+00 7.3528200916677147e+00 6.7121497731679138e+00 0 0 0
244 1 4 -1.5777079465259441e-01 7.3176232552690070e+00 6.5374074157238642e+00 2.0296885984132613e+00 0 0 0
245 1 4 -1.8002412409769403e-01 2.2791467428255185e+01 -3.5710549618870857e-01 3.2235422438235535e+00 0 0 0
246 1 4 -1.3813928482181487e-01 2.3179880661662178e+01 3.4256133213646098e+00 1.1062825556139231e+01 -1 1 0
247 1 4 -1.4215579362631819e-01 4.6907487210790890e+00 1.2599019360772710e+01 7.3959978913369380e+00 0 0 0
248 1 4 -1.4280267210340170e-01 4.0731079048500272e+00 -1.1259201890045523e+00 3.3117465077628188e+00 0 0 0
249 1 4 -1.3520667458832086e-01 1.5746673034968572e+01 7.7572478555505224e+00 4.1975548746939602e+00 0 0 0
250 1 4 -1.5185850998420844e-01 1.3975259170272146e+01 8.1433870947928515e+00 1.1066759955237906e+01 0 0 0
251 1 4 -1.3648209474351980e-01 2.0006631988419240e+01 4.9103014677336576e+00 9.9757904869699860e+00 0 0 0
252 1 4 -1.4311347069482563e-01 2.4875148348105206e+01 6.1918160615768478e+00 2.1514766608308822e+00 0 0 0
253 1 4 -1.3585193432897763e-01 1.0269695695680028e+01 8.5567295755929251e+00 1.9782849310927286e+00 0 -1 0
254 1 4 -1.4019794641864106e-01 9.0334752998666765e+00 1.2957949353402167e+01 7.3569867901667010e+00 0 0 0
255 1 4 -1.2418073584225316e-01 1.7835741141392472e+01 1.3242270274851196e+01 -8.4388571666375001e-01 0 0 1
256 1 4 -1.5182348427263723e-01 1.5462769700996700e+01 -5.4355142507266785e-01 -2.5384534325201935e-01 0 0 0
257 1 4 -1.5510259458315695e-01 5.4169030140201402e+00 4.3270833206709920e+00 -5.4993723299321995e-01 0 0 0
258 1 4 -1.4391248020827074e-01 2.3449148800592841e+01 6.4994801192595091e+00 8.1820965769496858e+00 0 0 0
259 1 4 -1.2795848710780119e-01 1.7768796573011962e+00 6.2081925098156230e+00 8.6302780562252295e+00 0 0 0
260 1 4 -1.1871175996133837e-01 8.0861496918750237e+00 6.0563678401903100e+00 -2.2535151465736925e-02 0 0 0
261 1 4 -1.2202052044030325e-01 2.4886724586560128e+01 -6.8818251518078011e-01 3.9380054904235040e+00 0 0 0
262 1 4 -1.6115561548223353e-01 2.2171361452037541e+01 2.6812504873149656e+00 9.1781252806995823e+00 -1 1 0
263 1 4 -1.6669409201485277e-01 5.9417767198463558e+00 1.2853919176385642e+01 9.2511169885202165e+00 0 0 0
264 1 4 -1.3606087916239371e-01 2.5693319149998093e+00 -1.4432593322444647e+00 1.6318896434534040e+00 0 0 0
265 1 4 -1.4984671248487913e-01 1.7481988650659225e+01 6.4899696043964568e+00 4.6076314445513624e+00 0 0 0
266 1 4 -1.4911287159053255e-01 1.3684595372202201e+01 1.0339052027600580e+01 1.1119624401314233e+01 0 0 0
267 1 4 -1.4790021083787847e-01 1.7877842583842295e+01 5.0021199708671764e+00 1.0720157008931285e+01 0 0 0
268 1 4 -1.1513982718552519e-01 2.3655771765338265e+01 6.4566459144293269e+00 3.1061985145855164e-01 0 0 0
269 1 4 -1.3635113676087388e-01 1.0221784636133522e+01 8.3984569814892058e+00 -2.3460968144058891e-01 0 -1 0
270 1 4 -1.4420437678056597e-01 1.0894819477038936e+01 1.3681779070102110e+01 6.3136187471457754e+00 0 0 0
271 1 4 -1.6175818150802290e-01 2.0387768028546272e+01 1.6349646158336384e-01 1.1375272139131171e+01 0 1 0
272 1 4 -1.6143422357555981e-01 1.3013646995834710e+01 1.3830745018360904e+01 1.1349926377552503e+01 0 -1 -1
273 1 4 -1.4514852324097488e-01 2.0141854439971656e+00 5.4185541417001213e+00 3.3645923803595554e+00 1 0 0
274 1 4 -1.4423562924211014e-01 1.6310467028419955e+00 1.2255458917648660e+01 6.5604792947742725e+00 0 0 0
275 1 4 -1.6424438794257121e-01 7.7562234345230925e+00 9.2293082591720292e+00 9.8079522731887288e+00 0 0 -1
276 1 4 -1.7035766980829040e-01 6.2551645027040657e+00 1.3649912191538007e+00 9.0190806866439055e-01 0 0 1
277 1 4 -1.6340860361891077e-01 2.4271504023853478e+01 1.1540724598769247e+01 -1.5591018727117800e-01 -1 0 1
278 1 4 -1.5315304337566021e-01 2.3458864393478745e+01 -5.7789939409913416e-01 7.4573315358262064e+00 0 0 -1