# LAMMPS data file written by OVITO Basic 3.5.3
672 atoms
4 atom types
0.0 29.982000351 xlo xhi
0.0 12.1540002823 ylo yhi
0.0 20.0170001984 zlo zhi
0.0 0.0 0.0 xy xz yz

Masses

1 12.0107  # C
2 14.0067  # N
3 15.9994  # O
4 1.00794  # H

Atoms  # full

1 1 1 0.0 4.2126209893 0.7901923648 3.1430694312
2 1 1 0.0 19.2036216145 0.7901923648 3.1430694312
3 1 1 0.0 10.7783787365 11.3638077352 13.1515689299
4 1 1 0.0 25.769378912 11.3638077352 13.1515689299
5 1 1 0.0 11.7081215268 11.3638077352 3.1430694312
6 1 1 0.0 26.6991217023 11.3638077352 3.1430694312
7 1 1 0.0 3.2828790985 0.7901923648 13.1515689299
8 1 1 0.0 18.2738788242 0.7901923648 13.1515689299
9 1 1 0.0 4.2126209893 6.8671926883 3.1430694312
10 1 1 0.0 19.2036216145 6.8671926883 3.1430694312
11 1 1 0.0 10.7783787365 5.286807594 13.1515689299
12 1 1 0.0 25.769378912 5.286807594 13.1515689299
13 1 1 0.0 11.7081215268 5.286807594 3.1430694312
14 1 1 0.0 26.6991217023 5.286807594 3.1430694312
15 1 1 0.0 3.2828790985 6.8671926883 13.1515689299
16 1 1 0.0 18.2738788242 6.8671926883 13.1515689299
17 1 1 0.0 5.6067839157 0.6318256925 3.0319751402
18 1 1 0.0 20.5977836414 0.6318256925 3.0319751402
19 1 1 0.0 9.3842167096 11.5221742738 13.0404752394
20 1 1 0.0 24.3752168851 11.5221742738 13.0404752394
21 1 1 0.0 13.1022835537 11.5221742738 3.0319751402
22 1 1 0.0 28.0932837292 11.5221742738 3.0319751402
23 1 1 0.0 1.8887161721 0.6318256925 13.0404752394
24 1 1 0.0 16.8797167973 0.6318256925 13.0404752394
25 1 1 0.0 5.6067839157 6.7088261497 3.0319751402
26 1 1 0.0 20.5977836414 6.7088261497 3.0319751402
27 1 1 0.0 9.3842167096 5.4451741326 13.0404752394
28 1 1 0.0 24.3752168851 5.4451741326 13.0404752394
29 1 1 0.0 13.1022835537 5.4451741326 3.0319751402
30 1 1 0.0 28.0932837292 5.4451741326 3.0319751402
31 1 1 0.0 1.8887161721 6.7088261497 13.0404752394
32 1 1 0.0 16.8797167973 6.7088261497 13.0404752394
33 1 1 0.0 6.3903634349 1.3909038166 2.1992678518
34 1 1 0.0 21.3813640601 1.3909038166 2.1992678518
35 1 1 0.0 8.6006362909 10.7630961983 12.2077682513
36 1 1 0.0 23.5916364664 10.7630961983 12.2077682513
37 1 1 0.0 13.8858639724 10.7630961983 2.1992678518
38 1 1 0.0 28.8768641479 10.7630961983 2.1992678518
39 1 1 0.0 1.1051366529 1.3909038166 12.2077682513
40 1 1 0.0 16.0961363786 1.3909038166 12.2077682513
41 1 1 0.0 6.3903634349 7.4679042252 2.1992678518
42 1 1 0.0 21.3813640601 7.4679042252 2.1992678518
43 1 1 0.0 8.6006362909 4.6860960571 12.2077682513
44 1 1 0.0 23.5916364664 4.6860960571 12.2077682513
45 1 1 0.0 13.8858639724 4.6860960571 2.1992678518
46 1 1 0.0 28.8768641479 4.6860960571 2.1992678518
47 1 1 0.0 1.1051366529 7.4679042252 12.2077682513
48 1 1 0.0 16.0961363786 7.4679042252 12.2077682513
49 1 1 0.0 5.8072137079 2.4154860769 1.4922674248
50 1 1 0.0 20.7982138834 2.4154860769 1.4922674248
51 1 1 0.0 9.1837864676 9.7385142054 11.5007681246
52 1 1 0.0 24.1747866431 9.7385142054 11.5007681246
53 1 1 0.0 13.3027137957 9.7385142054 1.4922674248
54 1 1 0.0 28.2937139712 9.7385142054 1.4922674248
55 1 1 0.0 1.6882863798 2.4154860769 11.5007681246
56 1 1 0.0 16.6792865553 2.4154860769 11.5007681246
57 1 1 0.0 5.8072137079 8.492486218 1.4922674248
58 1 1 0.0 20.7982138834 8.492486218 1.4922674248
59 1 1 0.0 9.1837864676 3.6615140643 11.5007681246
60 1 1 0.0 24.1747866431 3.6615140643 11.5007681246
61 1 1 0.0 13.3027137957 3.6615140643 1.4922674248
62 1 1 0.0 28.2937139712 3.6615140643 1.4922674248
63 1 1 0.0 1.6882863798 8.492486218 11.5007681246
64 1 1 0.0 16.6792865553 8.492486218 11.5007681246
65 1 1 0.0 4.4239938819 2.6922933725 1.6081657559
66 1 1 0.0 19.4149940574 2.6922933725 1.6081657559
67 1 1 0.0 10.5670062936 9.4617069098 11.6166664556
68 1 1 0.0 25.5580064691 9.4617069098 11.6166664556
69 1 1 0.0 11.9194939696 9.4617069098 1.6081657559
70 1 1 0.0 26.9104941451 9.4617069098 1.6081657559
71 1 1 0.0 3.0715062059 2.6922933725 11.6166664556
72 1 1 0.0 18.0625063814 2.6922933725 11.6166664556
73 1 1 0.0 4.4239938819 8.7692935137 1.6081657559
74 1 1 0.0 19.4149940574 8.7692935137 1.6081657559
75 1 1 0.0 10.5670062936 3.3847067686 11.6166664556
76 1 1 0.0 25.5580064691 3.3847067686 11.6166664556
77 1 1 0.0 11.9194939696 3.3847067686 1.6081657559
78 1 1 0.0 26.9104941451 3.3847067686 1.6081657559
79 1 1 0.0 3.0715062059 8.7692935137 11.6166664556
80 1 1 0.0 18.0625063814 8.7692935137 11.6166664556
81 1 1 0.0 3.7006782733 1.8458279864 2.3968356438
82 1 1 0.0 18.6916788986 1.8458279864 2.3968356438
83 1 1 0.0 11.2903214524 10.3081721136 12.4053358831
84 1 1 0.0 26.2813216279 10.3081721136 12.4053358831
85 1 1 0.0 11.1961788108 10.3081721136 2.3968356438
86 1 1 0.0 26.1871789863 10.3081721136 2.3968356438
87 1 1 0.0 3.7948218144 1.8458279864 12.4053358831
88 1 1 0.0 18.7858215402 1.8458279864 12.4053358831
89 1 1 0.0 3.7006782733 7.9228283099 2.3968356438
90 1 1 0.0 18.6916788986 7.9228283099 2.3968356438
91 1 1 0.0 11.2903214524 4.2311719724 12.4053358831
92 1 1 0.0 26.2813216279 4.2311719724 12.4053358831
93 1 1 0.0 11.1961788108 4.2311719724 2.3968356438
94 1 1 0.0 26.1871789863 4.2311719724 2.3968356438
95 1 1 0.0 3.7948218144 7.9228283099 12.4053358831
96 1 1 0.0 18.7858215402 7.9228283099 12.4053358831
97 1 1 0.0 3.3741742895 12.1323056349 4.0932764907
98 1 1 0.0 18.3651747049 12.1323056349 4.0932764907
99 1 1 0.0 11.6168256461 0.0216946474 14.1017765899
100 1 1 0.0 26.6078258216 0.0216946474 14.1017765899
101 1 1 0.0 10.8696746171 0.0216946474 4.0932764907
102 1 1 0.0 25.8606747926 0.0216946474 4.0932764907
103 1 1 0.0 4.1213255584 12.1323056349 14.1017765899
104 1 1 0.0 19.1123257339 12.1323056349 14.1017765899
105 1 1 0.0 3.3741742895 6.0553047645 4.0932764907
106 1 1 0.0 18.3651747049 6.0553047645 4.0932764907
107 1 1 0.0 11.6168256461 6.0986955178 14.1017765899
108 1 1 0.0 26.6078258216 6.0986955178 14.1017765899
109 1 1 0.0 10.8696746171 6.0986955178 4.0932764907
110 1 1 0.0 25.8606747926 6.0986955178 4.0932764907
111 1 1 0.0 4.1213255584 6.0553047645 14.1017765899
112 1 1 0.0 19.1123257339 6.0553047645 14.1017765899
113 1 1 0.0 7.8948603024 2.2574839395 16.8657239973
114 1 1 0.0 22.8858595785 2.2574839395 16.8657239973
115 1 1 0.0 7.0961398731 9.8965163428 6.8572238981
116 1 1 0.0 22.087140948 9.8965163428 6.8572238981
117 1 1 0.0 0.3993602147 9.8965163428 16.8657239973
118 1 1 0.0 15.3903594907 9.8965163428 16.8657239973
119 1 1 0.0 14.5916399608 2.2574839395 6.8572238981
120 1 1 0.0 29.5826410358 2.2574839395 6.8572238981
121 1 1 0.0 7.8948603024 8.3344840807 16.8657239973
122 1 1 0.0 22.8858595785 8.3344840807 16.8657239973
123 1 1 0.0 7.0961398731 3.8195162016 6.8572238981
124 1 1 0.0 22.087140948 3.8195162016 6.8572238981
125 1 1 0.0 0.3993602147 3.8195162016 16.8657239973
126 1 1 0.0 15.3903594907 3.8195162016 16.8657239973
127 1 1 0.0 14.5916399608 8.3344840807 6.8572238981
128 1 1 0.0 29.5826410358 8.3344840807 6.8572238981
129 1 1 0.0 9.2600906285 2.395796487 17.0040419891
130 1 1 0.0 24.251090804 2.395796487 17.0040419891
131 1 1 0.0 5.730909547 9.758203613 6.9955418899
132 1 1 0.0 20.7219097225 9.758203613 6.9955418899
133 1 1 0.0 1.7645905407 9.758203613 17.0040419891
134 1 1 0.0 16.7555907162 9.758203613 17.0040419891
135 1 1 0.0 13.2264096348 2.395796487 6.9955418899
136 1 1 0.0 28.2174098103 2.395796487 6.9955418899
137 1 1 0.0 9.2600906285 8.4727968105 17.0040419891
138 1 1 0.0 24.251090804 8.4727968105 17.0040419891
139 1 1 0.0 5.730909547 3.6812034718 6.9955418899
140 1 1 0.0 20.7219097225 3.6812034718 6.9955418899
141 1 1 0.0 1.7645905407 3.6812034718 17.0040419891
142 1 1 0.0 16.7555907162 3.6812034718 17.0040419891
143 1 1 0.0 13.2264096348 8.4727968105 6.9955418899
144 1 1 0.0 28.2174098103 8.4727968105 6.9955418899
145 1 1 0.0 10.0770998982 1.6020795594 17.7947134569
146 1 1 0.0 25.0681000737 1.6020795594 17.7947134569
147 1 1 0.0 4.9139002773 10.5519205406 7.7862133577
148 1 1 0.0 19.9049004528 10.5519205406 7.7862133577
149 1 1 0.0 2.5815998104 10.5519205406 17.7947134569
150 1 1 0.0 17.5725999859 10.5519205406 17.7947134569
151 1 1 0.0 12.4094003651 1.6020795594 7.7862133577
152 1 1 0.0 27.4004005406 1.6020795594 7.7862133577
153 1 1 0.0 10.0770998982 7.6790798828 17.7947134569
154 1 1 0.0 25.0681000737 7.6790798828 17.7947134569
155 1 1 0.0 4.9139002773 4.4749203995 7.7862133577
156 1 1 0.0 19.9049004528 4.4749203995 7.7862133577
157 1 1 0.0 2.5815998104 4.4749203995 17.7947134569
158 1 1 0.0 17.5725999859 4.4749203995 17.7947134569
159 1 1 0.0 12.4094003651 7.6790798828 7.7862133577
160 1 1 0.0 27.4004005406 7.6790798828 7.7862133577
161 1 1 0.0 9.4425313704 0.5858228136 18.4660826627
162 1 1 0.0 24.4335306465 0.5858228136 18.4660826627
163 1 1 0.0 5.5484688051 11.568177335 8.4575825635
164 1 1 0.0 20.53946988 11.568177335 8.4575825635
165 1 1 0.0 1.9470312827 11.568177335 18.4660826627
166 1 1 0.0 16.9380305587 11.568177335 18.4660826627
167 1 1 0.0 13.0439688928 0.5858228136 8.4575825635
168 1 1 0.0 28.0349699678 0.5858228136 8.4575825635
169 1 1 0.0 9.4425313704 6.6628230885 18.4660826627
170 1 1 0.0 24.4335306465 6.6628230885 18.4660826627
171 1 1 0.0 5.5484688051 5.4911771938 8.4575825635
172 1 1 0.0 20.53946988 5.4911771938 8.4575825635
173 1 1 0.0 1.9470312827 5.4911771938 18.4660826627
174 1 1 0.0 16.9380305587 5.4911771938 18.4660826627
175 1 1 0.0 13.0439688928 6.6628230885 8.4575825635
176 1 1 0.0 28.0349699678 6.6628230885 8.4575825635
177 1 1 0.0 8.1261710454 0.3262133554 18.381811192
178 1 1 0.0 23.1171703214 0.3262133554 18.381811192
179 1 1 0.0 6.8648291301 11.827787255 8.3733110928
180 1 1 0.0 21.8558302051 11.827787255 8.3733110928
181 1 1 0.0 0.6306709576 11.827787255 18.381811192
182 1 1 0.0 15.6216702337 11.827787255 18.381811192
183 1 1 0.0 14.3603292179 0.3262133554 8.3733110928
184 1 1 0.0 29.3513302928 0.3262133554 8.3733110928
185 1 1 0.0 8.1261710454 6.4032131684 18.381811192
186 1 1 0.0 23.1171703214 6.4032131684 18.381811192
187 1 1 0.0 6.8648291301 5.7507871139 8.3733110928
188 1 1 0.0 21.8558302051 5.7507871139 8.3733110928
189 1 1 0.0 0.6306709576 5.7507871139 18.381811192
190 1 1 0.0 15.6216702337 5.7507871139 18.381811192
191 1 1 0.0 14.3603292179 6.4032131684 8.3733110928
192 1 1 0.0 29.3513302928 6.4032131684 8.3733110928
193 1 1 0.0 7.3775210963 1.1966828192 17.6103558842
194 1 1 0.0 22.3685217215 1.1966828192 17.6103558842
195 1 1 0.0 7.6134786295 10.9573171836 7.601855785
196 1 1 0.0 22.604478805 10.9573171836 7.601855785
197 1 1 0.0 14.8730216337 10.9573171836 17.6103558842
198 1 1 0.0 29.8640218092 10.9573171836 17.6103558842
199 1 1 0.0 0.1179789915 1.1966828192 7.601855785
200 1 1 0.0 15.1089787173 1.1966828192 7.601855785
201 1 1 0.0 7.3775210963 7.2736832399 17.6103558842
202 1 1 0.0 22.3685217215 7.2736832399 17.6103558842
203 1 1 0.0 7.6134786295 4.8803170424 7.601855785
204 1 1 0.0 22.604478805 4.8803170424 7.601855785
205 1 1 0.0 14.8730216337 4.8803170424 17.6103558842
206 1 1 0.0 29.8640218092 4.8803170424 17.6103558842
207 1 1 0.0 0.1179789915 7.2736832399 7.601855785
208 1 1 0.0 15.1089787173 7.2736832399 7.601855785
209 1 1 0.0 7.0114405122 3.1055294915 15.9881788887
210 1 1 0.0 22.0024411374 3.1055294915 15.9881788887
211 1 1 0.0 7.9795592136 9.0484711554 5.9796787895
212 1 1 0.0 22.9705593891 9.0484711554 5.9796787895
213 1 1 0.0 14.5069410497 9.0484711554 15.9881788887
214 1 1 0.0 29.4979412252 9.0484711554 15.9881788887
215 1 1 0.0 0.4840595756 3.1055294915 5.9796787895
216 1 1 0.0 15.4750593013 3.1055294915 5.9796787895
217 1 1 0.0 7.0114405122 9.182529268 15.9881788887
218 1 1 0.0 22.0024411374 9.182529268 15.9881788887
219 1 1 0.0 7.9795592136 2.9714710143 5.9796787895
220 1 1 0.0 22.9705593891 2.9714710143 5.9796787895
221 1 1 0.0 14.5069410497 2.9714710143 15.9881788887
222 1 1 0.0 29.4979412252 2.9714710143 15.9881788887
223 1 1 0.0 0.4840595756 9.182529268 5.9796787895
224 1 1 0.0 15.4750593013 9.182529268 5.9796787895
225 1 2 0.0 6.2626404432 11.7307977494 3.7784088974
226 1 2 0.0 21.2536406187 11.7307977494 3.7784088974
227 1 2 0.0 8.7283597323 0.4232025329 13.7869087164
228 1 2 0.0 23.7193599078 0.4232025329 13.7869087164
229 1 2 0.0 13.7581405309 0.4232025329 3.7784088974
230 1 2 0.0 28.7491407064 0.4232025329 3.7784088974
231 1 2 0.0 1.2328596446 11.7307977494 13.7869087164
232 1 2 0.0 16.2238598201 11.7307977494 13.7869087164
233 1 2 0.0 6.2626404432 5.653796879 3.7784088974
234 1 2 0.0 21.2536406187 5.653796879 3.7784088974
235 1 2 0.0 8.7283597323 6.5002034033 13.7869087164
236 1 2 0.0 23.7193599078 6.5002034033 13.7869087164
237 1 2 0.0 13.7581405309 6.5002034033 3.7784088974
238 1 2 0.0 28.7491407064 6.5002034033 3.7784088974
239 1 2 0.0 1.2328596446 5.653796879 13.7869087164
240 1 2 0.0 16.2238598201 5.653796879 13.7869087164
241 1 2 0.0 6.6035354574 3.229621567 0.606515126
242 1 2 0.0 21.5945360526 3.229621567 0.606515126
243 1 2 0.0 8.3874642984 8.9243783507 10.6150156256
244 1 2 0.0 23.3784644739 8.9243783507 10.6150156256
245 1 2 0.0 14.0990359649 8.9243783507 0.606515126
246 1 2 0.0 29.0900361404 8.9243783507 0.606515126
247 1 2 0.0 0.8919646304 3.229621567 10.6150156256
248 1 2 0.0 15.8829643861 3.229621567 10.6150156256
249 1 2 0.0 6.6035354574 9.3066220728 0.606515126
250 1 2 0.0 21.5945360526 9.3066220728 0.606515126
251 1 2 0.0 8.3874642984 2.8473782095 10.6150156256
252 1 2 0.0 23.3784644739 2.8473782095 10.6150156256
253 1 2 0.0 14.0990359649 2.8473782095 0.606515126
254 1 2 0.0 29.0900361404 2.8473782095 0.606515126
255 1 2 0.0 0.8919646304 9.3066220728 10.6150156256
256 1 2 0.0 15.8829643861 9.3066220728 10.6150156256
257 1 2 0.0 2.2293116061 2.1118183798 2.4424743442
258 1 2 0.0 17.2203119915 2.1118183798 2.4424743442
259 1 2 0.0 12.7616883595 10.0421820848 12.4509745835
260 1 2 0.0 27.752688535 10.0421820848 12.4509745835
261 1 2 0.0 9.7248119037 10.0421820848 2.4424743442
262 1 2 0.0 24.7158120792 10.0421820848 2.4424743442
263 1 2 0.0 5.2661882718 2.1118183798 12.4509745835
264 1 2 0.0 20.2571884473 2.1118183798 12.4509745835
265 1 2 0.0 2.2293116061 8.1888183387 2.4424743442
266 1 2 0.0 17.2203119915 8.1888183387 2.4424743442
267 1 2 0.0 12.7616883595 3.9651819436 12.4509745835
268 1 2 0.0 27.752688535 3.9651819436 12.4509745835
269 1 2 0.0 9.7248119037 3.9651819436 2.4424743442
270 1 2 0.0 24.7158120792 3.9651819436 2.4424743442
271 1 2 0.0 5.2661882718 8.1888183387 12.4509745835
272 1 2 0.0 20.2571884473 8.1888183387 12.4509745835
273 1 2 0.0 10.0018456469 3.4266989976 16.2171729507
274 1 2 0.0 24.9928466919 3.4266989976 16.2171729507
275 1 2 0.0 4.9891545286 8.7273016493 6.2086728515
276 1 2 0.0 19.9801538346 8.7273016493 6.2086728515
277 1 2 0.0 2.5063455592 8.7273016493 16.2171729507
278 1 2 0.0 17.4973466042 8.7273016493 16.2171729507
279 1 2 0.0 12.4846546163 3.4266989976 6.2086728515
280 1 2 0.0 27.4756539223 3.4266989976 6.2086728515
281 1 2 0.0 10.0018456469 9.5036987741 16.2171729507
282 1 2 0.0 24.9928466919 9.5036987741 16.2171729507
283 1 2 0.0 4.9891545286 2.6503015082 6.2086728515
284 1 2 0.0 19.9801538346 2.6503015082 6.2086728515
285 1 2 0.0 2.5063455592 2.6503015082 16.2171729507
286 1 2 0.0 17.4973466042 2.6503015082 16.2171729507
287 1 2 0.0 12.4846546163 9.5036987741 6.2086728515
288 1 2 0.0 27.4756539223 9.5036987741 6.2086728515
289 1 2 0.0 10.2959690704 11.864187939 19.3035942913
290 1 2 0.0 25.2869692459 11.864187939 19.3035942913
291 1 2 0.0 4.6950311051 0.2898123433 9.2950941921
292 1 2 0.0 19.6860312806 0.2898123433 9.2950941921
293 1 2 0.0 2.8004689826 0.2898123433 19.3035942913
294 1 2 0.0 17.7914691581 0.2898123433 19.3035942913
295 1 2 0.0 12.1905311929 11.864187939 9.2950941921
296 1 2 0.0 27.1815313684 11.864187939 9.2950941921
297 1 2 0.0 10.2959690704 5.787188527 19.3035942913
298 1 2 0.0 25.2869692459 5.787188527 19.3035942913
299 1 2 0.0 4.6950311051 6.3668117553 9.2950941921
300 1 2 0.0 19.6860312806 6.3668117553 9.2950941921
301 1 2 0.0 2.8004689826 6.3668117553 19.3035942913
302 1 2 0.0 17.7914691581 6.3668117553 19.3035942913
303 1 2 0.0 12.1905311929 5.787188527 9.2950941921
304 1 2 0.0 27.1815313684 5.787188527 9.2950941921
305 1 2 0.0 5.9397340596 0.9506251685 17.6155602042
306 1 2 0.0 20.9307337853 0.9506251685 17.6155602042
307 1 2 0.0 9.0512665657 11.2033751138 7.607060105
308 1 2 0.0 24.0422667412 11.2033751138 7.607060105
309 1 2 0.0 13.4352336976 11.2033751138 17.6155602042
310 1 2 0.0 28.4262338731 11.2033751138 17.6155602042
311 1 2 0.0 1.5557660282 0.9506251685 7.607060105
312 1 2 0.0 16.5467666534 0.9506251685 7.607060105
313 1 2 0.0 5.9397340596 7.0276253097 17.6155602042
314 1 2 0.0 20.9307337853 7.0276253097 17.6155602042
315 1 2 0.0 9.0512665657 5.1263749726 7.607060105
316 1 2 0.0 24.0422667412 5.1263749726 7.607060105
317 1 2 0.0 13.4352336976 5.1263749726 17.6155602042
318 1 2 0.0 28.4262338731 5.1263749726 17.6155602042
319 1 2 0.0 1.5557660282 7.0276253097 7.607060105
320 1 2 0.0 16.5467666534 7.0276253097 7.607060105
321 1 3 0.0 5.7730342875 10.6177955746 3.832054538
322 1 3 0.0 20.764034463 10.6177955746 3.832054538
323 1 3 0.0 9.217965888 1.5362047077 13.8405543369
324 1 3 0.0 24.2089660635 1.5362047077 13.8405543369
325 1 3 0.0 13.2685343753 1.5362047077 3.832054538
326 1 3 0.0 28.2595345508 1.5362047077 3.832054538
327 1 3 0.0 1.7224658002 10.6177955746 13.8405543369
328 1 3 0.0 16.7134659757 10.6177955746 13.8405543369
329 1 3 0.0 5.7730342875 4.5407954335 3.832054538
330 1 3 0.0 20.764034463 4.5407954335 3.832054538
331 1 3 0.0 9.217965888 7.6132048488 13.8405543369
332 1 3 0.0 24.2089660635 7.6132048488 13.8405543369
333 1 3 0.0 13.2685343753 7.6132048488 3.832054538
334 1 3 0.0 28.2595345508 7.6132048488 3.832054538
335 1 3 0.0 1.7224658002 4.5407954335 13.8405543369
336 1 3 0.0 16.7134659757 4.5407954335 13.8405543369
337 1 3 0.0 7.3316484258 12.0444925331 4.3494939531
338 1 3 0.0 22.3226477019 12.0444925331 4.3494939531
339 1 3 0.0 7.6593517497 0.1095077492 14.357993752
340 1 3 0.0 22.6503528246 0.1095077492 14.357993752
341 1 3 0.0 14.8271485136 0.1095077492 4.3494939531
342 1 3 0.0 29.8181477896 0.1095077492 4.3494939531
343 1 3 0.0 0.1638516619 12.0444925331 14.357993752
344 1 3 0.0 15.1548527369 12.0444925331 14.357993752
345 1 3 0.0 7.3316484258 5.9674916627 4.3494939531
346 1 3 0.0 22.3226477019 5.9674916627 4.3494939531
347 1 3 0.0 7.6593517497 6.1865086196 14.357993752
348 1 3 0.0 22.6503528246 6.1865086196 14.357993752
349 1 3 0.0 14.8271485136 6.1865086196 4.3494939531
350 1 3 0.0 29.8181477896 6.1865086196 4.3494939531
351 1 3 0.0 0.1638516619 5.9674916627 14.357993752
352 1 3 0.0 15.1548527369 5.9674916627 14.357993752
353 1 3 0.0 7.6502073295 2.8044748316 0.2155830921
354 1 3 0.0 22.6412066055 2.8044748316 0.2155830921
355 1 3 0.0 7.340792846 9.3495252684 10.2240836517
356 1 3 0.0 22.331793921 9.3495252684 10.2240836517
357 1 3 0.0 0.1547072417 9.3495252684 0.2155830921
358 1 3 0.0 15.1457065178 9.3495252684 0.2155830921
359 1 3 0.0 14.8362929338 2.8044748316 10.2240836517
360 1 3 0.0 29.8272940087 2.8044748316 10.2240836517
361 1 3 0.0 7.6502073295 8.8814751551 0.2155830921
362 1 3 0.0 22.6412066055 8.8814751551 0.2155830921
363 1 3 0.0 7.340792846 3.2725251272 10.2240836517
364 1 3 0.0 22.331793921 3.2725251272 10.2240836517
365 1 3 0.0 0.1547072417 3.2725251272 0.2155830921
366 1 3 0.0 15.1457065178 3.2725251272 0.2155830921
367 1 3 0.0 14.8362929338 8.8814751551 10.2240836517
368 1 3 0.0 29.8272940087 8.8814751551 10.2240836517
369 1 3 0.0 6.2133196628 4.3471213904 0.3320820133
370 1 3 0.0 21.2043193886 4.3471213904 0.3320820133
371 1 3 0.0 8.7776809624 7.8068788919 10.3405821125
372 1 3 0.0 23.7686811379 7.8068788919 10.3405821125
373 1 3 0.0 13.7088193009 7.8068788919 0.3320820133
374 1 3 0.0 28.6998194764 7.8068788919 0.3320820133
375 1 3 0.0 1.2821804249 4.3471213904 10.3405821125
376 1 3 0.0 16.2731810501 4.3471213904 10.3405821125
377 1 3 0.0 6.2133196628 10.4241215315 0.3320820133
378 1 3 0.0 21.2043193886 10.4241215315 0.3320820133
379 1 3 0.0 8.7776809624 1.7298787508 10.3405821125
380 1 3 0.0 23.7686811379 1.7298787508 10.3405821125
381 1 3 0.0 13.7088193009 1.7298787508 0.3320820133
382 1 3 0.0 28.6998194764 1.7298787508 0.3320820133
383 1 3 0.0 1.2821804249 10.4241215315 10.3405821125
384 1 3 0.0 16.2731810501 10.4241215315 10.3405821125
385 1 3 0.0 1.8317502815 3.2378862751 2.6636623565
386 1 3 0.0 16.822750457 3.2378862751 2.6636623565
387 1 3 0.0 13.159249894 8.9161140072 12.6721621555
388 1 3 0.0 28.1502500695 8.9161140072 12.6721621555
389 1 3 0.0 9.3272503692 8.9161140072 2.6636623565
390 1 3 0.0 24.3182505447 8.9161140072 2.6636623565
391 1 3 0.0 5.6637498063 3.2378862751 12.6721621555
392 1 3 0.0 20.6547499818 3.2378862751 12.6721621555
393 1 3 0.0 1.8317502815 9.3148864162 2.6636623565
394 1 3 0.0 16.822750457 9.3148864162 2.6636623565
395 1 3 0.0 13.159249894 2.8391138661 12.6721621555
396 1 3 0.0 28.1502500695 2.8391138661 12.6721621555
397 1 3 0.0 9.3272503692 2.8391138661 2.6636623565
398 1 3 0.0 24.3182505447 2.8391138661 2.6636623565
399 1 3 0.0 5.6637498063 9.3148864162 12.6721621555
400 1 3 0.0 20.6547499818 9.3148864162 12.6721621555
401 1 3 0.0 1.4763137273 1.1896942933 2.2260906521
402 1 3 0.0 16.4673136629 1.1896942933 2.2260906521
403 1 3 0.0 13.5146866881 10.9643058067 12.2345904711
404 1 3 0.0 28.5056868636 10.9643058067 12.2345904711
405 1 3 0.0 8.9718135752 10.9643058067 2.2260906521
406 1 3 0.0 23.9628137507 10.9643058067 2.2260906521
407 1 3 0.0 6.0191866003 1.1896942933 12.2345904711
408 1 3 0.0 21.0101867758 1.1896942933 12.2345904711
409 1 3 0.0 1.4763137273 7.2666946168 2.2260906521
410 1 3 0.0 16.4673136629 7.2666946168 2.2260906521
411 1 3 0.0 13.5146866881 4.8873056655 12.2345904711
412 1 3 0.0 28.5056868636 4.8873056655 12.2345904711
413 1 3 0.0 8.9718135752 4.8873056655 2.2260906521
414 1 3 0.0 23.9628137507 4.8873056655 2.2260906521
415 1 3 0.0 6.0191866003 7.2666946168 12.2345904711
416 1 3 0.0 21.0101867758 7.2666946168 12.2345904711
417 1 3 0.0 9.4849554212 4.5480875906 16.16432789
418 1 3 0.0 24.4759555967 4.5480875906 16.16432789
419 1 3 0.0 5.5060447543 7.6059126917 6.1558277908
420 1 3 0.0 20.4970449298 7.6059126917 6.1558277908
421 1 3 0.0 1.9894553335 7.6059126917 16.16432789
422 1 3 0.0 16.980455509 7.6059126917 16.16432789
423 1 3 0.0 13.001544842 4.5480875906 6.1558277908
424 1 3 0.0 27.9925450175 4.5480875906 6.1558277908
425 1 3 0.0 9.4849554212 10.6250877317 16.16432789
426 1 3 0.0 24.4759555967 10.6250877317 16.16432789
427 1 3 0.0 5.5060447543 1.5289125506 6.1558277908
428 1 3 0.0 20.4970449298 1.5289125506 6.1558277908
429 1 3 0.0 1.9894553335 1.5289125506 16.16432789
430 1 3 0.0 16.980455509 1.5289125506 16.16432789
431 1 3 0.0 13.001544842 10.6250877317 6.1558277908
432 1 3 0.0 27.9925450175 10.6250877317 6.1558277908
433 1 3 0.0 11.030228229 3.1249150126 15.7261560559
434 1 3 0.0 26.0212284045 3.1249150126 15.7261560559
435 1 3 0.0 3.9607719465 9.0290852697 5.7176559567
436 1 3 0.0 18.951772122 9.0290852697 5.7176559567
437 1 3 0.0 3.5347281413 9.0290852697 15.7261560559
438 1 3 0.0 18.5257283168 9.0290852697 15.7261560559
439 1 3 0.0 11.4562720342 3.1249150126 5.7176559567
440 1 3 0.0 26.4472722097 3.1249150126 5.7176559567
441 1 3 0.0 11.030228229 9.2019151537 15.7261560559
442 1 3 0.0 26.0212284045 9.2019151537 15.7261560559
443 1 3 0.0 3.9607719465 2.9520851286 5.7176559567
444 1 3 0.0 18.951772122 2.9520851286 5.7176559567
445 1 3 0.0 3.5347281413 2.9520851286 15.7261560559
446 1 3 0.0 18.5257283168 2.9520851286 15.7261560559
447 1 3 0.0 11.4562720342 9.2019151537 5.7176559567
448 1 3 0.0 26.4472722097 9.2019151537 5.7176559567
449 1 3 0.0 11.2513455416 0.1961047946 19.8726773067
450 1 3 0.0 26.2423457171 0.1961047946 19.8726773067
451 1 3 0.0 3.7396546339 11.9578957673 9.8641772075
452 1 3 0.0 18.7306548094 11.9578957673 9.8641772075
453 1 3 0.0 3.7558454538 11.9578957673 19.8726773067
454 1 3 0.0 18.7468456293 11.9578957673 19.8726773067
455 1 3 0.0 11.2351547217 0.1961047946 9.8641772075
456 1 3 0.0 26.2261548972 0.1961047946 9.8641772075
457 1 3 0.0 11.2513455416 6.2731046562 19.8726773067
458 1 3 0.0 26.2423457171 6.2731046562 19.8726773067
459 1 3 0.0 3.7396546339 5.8808956261 9.8641772075
460 1 3 0.0 18.7306548094 5.8808956261 9.8641772075
461 1 3 0.0 3.7558454538 5.8808956261 19.8726773067
462 1 3 0.0 18.7468456293 5.8808956261 19.8726773067
463 1 3 0.0 11.2351547217 6.2731046562 9.8641772075
464 1 3 0.0 26.2261548972 6.2731046562 9.8641772075
465 1 3 0.0 9.9408316166 10.6896254611 19.4142882824
466 1 3 0.0 24.9318326916 10.6896254611 19.4142882824
467 1 3 0.0 5.0501685589 1.4643748212 9.4057881832
468 1 3 0.0 20.0411678349 1.4643748212 9.4057881832
469 1 3 0.0 2.4453315289 1.4643748212 19.4142882824
470 1 3 0.0 17.4363326038 1.4643748212 19.4142882824
471 1 3 0.0 12.5456686466 10.6896254611 9.4057881832
472 1 3 0.0 27.5366679227 10.6896254611 9.4057881832
473 1 3 0.0 9.9408316166 4.6126246028 19.4142882824
474 1 3 0.0 24.9318326916 4.6126246028 19.4142882824
475 1 3 0.0 5.0501685589 7.5413756795 9.4057881832
476 1 3 0.0 20.0411678349 7.5413756795 9.4057881832
477 1 3 0.0 2.4453315289 7.5413756795 19.4142882824
478 1 3 0.0 17.4363326038 7.5413756795 19.4142882824
479 1 3 0.0 12.5456686466 4.6126246028 9.4057881832
480 1 3 0.0 27.5366679227 4.6126246028 9.4057881832
481 1 3 0.0 5.5705055753 12.0525750527 17.2392414011
482 1 3 0.0 20.5615062006 12.0525750527 17.2392414011
483 1 3 0.0 9.4204941504 0.1014252296 7.2307413019
484 1 3 0.0 24.4114943259 0.1014252296 7.2307413019
485 1 3 0.0 13.0660061128 0.1014252296 17.2392414011
486 1 3 0.0 28.0570062883 0.1014252296 17.2392414011
487 1 3 0.0 1.9249945124 12.0525750527 7.2307413019
488 1 3 0.0 16.9159942382 12.0525750527 7.2307413019
489 1 3 0.0 5.5705055753 5.9755749116 17.2392414011
490 1 3 0.0 20.5615062006 5.9755749116 17.2392414011
491 1 3 0.0 9.4204941504 6.1784253707 7.2307413019
492 1 3 0.0 24.4114943259 6.1784253707 7.2307413019
493 1 3 0.0 13.0660061128 6.1784253707 17.2392414011
494 1 3 0.0 28.0570062883 6.1784253707 17.2392414011
495 1 3 0.0 1.9249945124 5.9755749116 7.2307413019
496 1 3 0.0 16.9159942382 5.9755749116 7.2307413019
497 1 3 0.0 5.2279615811 1.8678267269 18.026510119
498 1 3 0.0 20.2189613069 1.8678267269 18.026510119
499 1 3 0.0 9.7630390441 10.28617392 8.0180100198
500 1 3 0.0 24.7540392196 10.28617392 8.0180100198
501 1 3 0.0 12.7234612191 10.28617392 18.026510119
502 1 3 0.0 27.7144613946 10.28617392 18.026510119
503 1 3 0.0 2.2675385067 1.8678267269 8.0180100198
504 1 3 0.0 17.2585391319 1.8678267269 8.0180100198
505 1 3 0.0 5.2279615811 7.9448265035 18.026510119
506 1 3 0.0 20.2189613069 7.9448265035 18.026510119
507 1 3 0.0 9.7630390441 4.2091737788 8.0180100198
508 1 3 0.0 24.7540392196 4.2091737788 8.0180100198
509 1 3 0.0 12.7234612191 4.2091737788 18.026510119
510 1 3 0.0 27.7144613946 4.2091737788 18.026510119
511 1 3 0.0 2.2675385067 7.9448265035 8.0180100198
512 1 3 0.0 17.2585391319 7.9448265035 8.0180100198
513 1 4 0.0 4.0598625476 11.9247152007 4.8373082479
514 1 4 0.0 19.0508631728 11.9247152007 4.8373082479
515 1 4 0.0 10.9311371782 0.2292850816 14.8458083471
516 1 4 0.0 25.9221373537 0.2292850816 14.8458083471
517 1 4 0.0 11.5553630851 0.2292850816 4.8373082479
518 1 4 0.0 26.5463632606 0.2292850816 4.8373082479
519 1 4 0.0 3.4356375401 11.9247152007 14.8458083471
520 1 4 0.0 18.4266372659 11.9247152007 14.8458083471
521 1 4 0.0 4.0598625476 5.8477150595 4.8373082479
522 1 4 0.0 19.0508631728 5.8477150595 4.8373082479
523 1 4 0.0 10.9311371782 6.3062852228 14.8458083471
524 1 4 0.0 25.9221373537 6.3062852228 14.8458083471
525 1 4 0.0 11.5553630851 6.3062852228 4.8373082479
526 1 4 0.0 26.5463632606 6.3062852228 4.8373082479
527 1 4 0.0 3.4356375401 5.8477150595 14.8458083471
528 1 4 0.0 18.4266372659 5.8477150595 14.8458083471
529 1 4 0.0 3.2702867482 11.2256167155 3.5181879749
530 1 4 0.0 18.2612871636 11.2256167155 3.5181879749
531 1 4 0.0 11.7207131874 0.9283835668 13.5266886746
532 1 4 0.0 26.7117133629 0.9283835668 13.5266886746
533 1 4 0.0 10.7657870759 0.9283835668 3.5181879749
534 1 4 0.0 25.7567872514 0.9283835668 3.5181879749
535 1 4 0.0 4.2252130996 11.2256167155 13.5266886746
536 1 4 0.0 19.2162132751 11.2256167155 13.5266886746
537 1 4 0.0 3.2702867482 5.1486165744 3.5181879749
538 1 4 0.0 18.2612871636 5.1486165744 3.5181879749
539 1 4 0.0 11.7207131874 7.0053837079 13.5266886746
540 1 4 0.0 26.7117133629 7.0053837079 13.5266886746
541 1 4 0.0 10.7657870759 7.0053837079 3.5181879749
542 1 4 0.0 25.7567872514 7.0053837079 3.5181879749
543 1 4 0.0 4.2252130996 5.1486165744 13.5266886746
544 1 4 0.0 19.2162132751 5.1486165744 13.5266886746
545 1 4 0.0 2.8743744636 0.650725163 4.5900984356
546 1 4 0.0 17.8653750888 0.650725163 4.5900984356
547 1 4 0.0 12.1166252622 11.5032752166 14.5985991353
548 1 4 0.0 27.1076254377 11.5032752166 14.5985991353
549 1 4 0.0 10.3698750011 11.5032752166 4.5900984356
550 1 4 0.0 25.3608751766 11.5032752166 4.5900984356
551 1 4 0.0 4.6211256242 0.650725163 14.5985991353
552 1 4 0.0 19.6121253499 0.650725163 14.5985991353
553 1 4 0.0 2.8743744636 6.7277252069 4.5900984356
554 1 4 0.0 17.8653750888 6.7277252069 4.5900984356
555 1 4 0.0 12.1166252622 5.4262750754 14.5985991353
556 1 4 0.0 27.1076254377 5.4262750754 14.5985991353
557 1 4 0.0 10.3698750011 5.4262750754 4.5900984356
558 1 4 0.0 25.3608751766 5.4262750754 4.5900984356
559 1 4 0.0 4.6211256242 6.7277252069 14.5985991353
560 1 4 0.0 19.6121253499 6.7277252069 14.5985991353
561 1 4 0.0 7.3114107855 1.2250017006 2.2154815619
562 1 4 0.0 22.302410961 1.2250017006 2.2154815619
563 1 4 0.0 7.67958939 10.9289983022 12.2239813609
564 1 4 0.0 22.6705895655 10.9289983022 12.2239813609
565 1 4 0.0 14.8069108732 10.9289983022 2.2154815619
566 1 4 0.0 29.7979110487 10.9289983022 2.2154815619
567 1 4 0.0 0.1840893023 1.2250017006 12.2239813609
568 1 4 0.0 15.1750894778 1.2250017006 12.2239813609
569 1 4 0.0 7.3114107855 7.3020021213 2.2154815619
570 1 4 0.0 22.302410961 7.3020021213 2.2154815619
571 1 4 0.0 7.67958939 4.851998161 12.2239813609
572 1 4 0.0 22.6705895655 4.851998161 12.2239813609
573 1 4 0.0 14.8069108732 4.851998161 2.2154815619