ITEM: TIMESTEP
0
ITEM: NUMBER OF ATOMS
672
ITEM: BOX BOUNDS xy xz yz pp pp pp
0.0000000000000000e+00 2.9982000351000000e+01 0.0000000000000000e+00
0.0000000000000000e+00 1.2154000282300000e+01 0.0000000000000000e+00
0.0000000000000000e+00 2.0017000198400002e+01 0.0000000000000000e+00
ITEM: ATOMS id type xs ys zs
1 1 0.141737 0.0702469 0.15481
2 1 0.641737 0.0702469 0.15481
3 1 0.358263 0.929753 0.65481
4 1 0.858263 0.929753 0.65481
5 1 0.391737 0.929753 0.15481
6 1 0.891737 0.929753 0.15481
7 1 0.108263 0.0702469 0.65481
8 1 0.608263 0.0702469 0.65481
9 1 0.141737 0.570247 0.15481
10 1 0.641737 0.570247 0.15481
11 1 0.358263 0.429753 0.65481
12 1 0.858263 0.429753 0.65481
13 1 0.391737 0.429753 0.15481
14 1 0.891737 0.429753 0.15481
15 1 0.108263 0.570247 0.65481
16 1 0.608263 0.570247 0.65481
17 1 0.188976 0.0446635 0.151695
18 1 0.688976 0.0446635 0.151695
19 1 0.311024 0.955337 0.651695
20 1 0.811024 0.955337 0.651695
21 1 0.438976 0.955337 0.151695
22 1 0.938976 0.955337 0.151695
23 1 0.0610237 0.0446635 0.651695
24 1 0.561024 0.0446635 0.651695
25 1 0.188976 0.544664 0.151695
26 1 0.688976 0.544664 0.151695
27 1 0.311024 0.455336 0.651695
28 1 0.811024 0.455336 0.651695
29 1 0.438976 0.455336 0.151695
30 1 0.938976 0.455336 0.151695
31 1 0.0610238 0.544664 0.651695
32 1 0.561024 0.544664 0.651695
33 1 0.215338 0.114614 0.110309
34 1 0.715338 0.114614 0.110309
35 1 0.284662 0.885386 0.610309
36 1 0.784662 0.885386 0.610309
37 1 0.465338 0.885386 0.110309
38 1 0.965338 0.885386 0.110309
39 1 0.0346623 0.114614 0.610309
40 1 0.534662 0.114614 0.610309
41 1 0.215338 0.614614 0.110309
42 1 0.715338 0.614614 0.110309
43 1 0.284662 0.385386 0.610309
44 1 0.784663 0.385386 0.610309
45 1 0.465338 0.385386 0.110309
46 1 0.965338 0.385386 0.110309
47 1 0.0346625 0.614614 0.610309
48 1 0.534663 0.614614 0.610309
49 1 0.195248 0.201576 0.0727719
50 1 0.695248 0.201576 0.0727719
51 1 0.304752 0.798424 0.572772
52 1 0.804752 0.798424 0.572772
53 1 0.445248 0.798424 0.0727719
54 1 0.945248 0.798424 0.0727719
55 1 0.0547516 0.201576 0.572772
56 1 0.554752 0.201576 0.572772
57 1 0.195248 0.701576 0.0727719
58 1 0.695248 0.701576 0.0727719
59 1 0.304752 0.298424 0.572772
60 1 0.804752 0.298424 0.572772
61 1 0.445248 0.298424 0.0727719
62 1 0.945248 0.298424 0.0727719
63 1 0.0547517 0.701576 0.572772
64 1 0.554752 0.701576 0.572772
65 1 0.148074 0.222317 0.0781798
66 1 0.648074 0.222317 0.0781798
67 1 0.351926 0.777683 0.57818
68 1 0.851926 0.777683 0.57818
69 1 0.398074 0.777683 0.0781798
70 1 0.898074 0.777683 0.0781798
71 1 0.101926 0.222317 0.57818
72 1 0.601926 0.222317 0.57818
73 1 0.148074 0.722317 0.0781799
74 1 0.648074 0.722317 0.0781799
75 1 0.351926 0.277683 0.57818
76 1 0.851926 0.277683 0.57818
77 1 0.398074 0.277683 0.0781799
78 1 0.898074 0.277683 0.0781799
79 1 0.101926 0.722317 0.57818
80 1 0.601925 0.722317 0.57818
81 1 0.120142 0.156122 0.118539
82 1 0.620142 0.156122 0.118539
83 1 0.379858 0.843878 0.618539
84 1 0.879858 0.843878 0.618539
85 1 0.370142 0.843878 0.118539
86 1 0.870142 0.843878 0.118539
87 1 0.129858 0.156122 0.618539
88 1 0.629858 0.156122 0.618539
89 1 0.120141 0.656122 0.118539
90 1 0.620141 0.656122 0.118539
91 1 0.379859 0.343878 0.618539
92 1 0.879859 0.343878 0.618539
93 1 0.370141 0.343878 0.118539
94 1 0.870141 0.343878 0.118539
95 1 0.129859 0.656122 0.618539
96 1 0.629859 0.656122 0.618539
97 1 0.115508 0.999087 0.205327
98 1 0.615508 0.999087 0.205328
99 1 0.384492 0.000913076 0.705328
100 1 0.884492 0.00091308 0.705328
101 1 0.365508 0.000913076 0.205327
102 1 0.865508 0.000913077 0.205328
103 1 0.134492 0.999087 0.705328
104 1 0.634492 0.999087 0.705328
105 1 0.115508 0.499087 0.205328
106 1 0.615508 0.499087 0.205328
107 1 0.384492 0.500913 0.705328
108 1 0.884492 0.500913 0.705328
109 1 0.365508 0.500913 0.205328
110 1 0.865508 0.500913 0.205328
111 1 0.134492 0.499087 0.705328
112 1 0.634492 0.499087 0.705328
113 1 0.26382 0.184901 0.844465
114 1 0.763821 0.184901 0.844465
115 1 0.23618 0.815099 0.344465
116 1 0.73618 0.815099 0.344465
117 1 0.0138204 0.815099 0.844465
118 1 0.51382 0.815099 0.844465
119 1 0.486179 0.184901 0.344465
120 1 0.986179 0.184901 0.344465
121 1 0.26382 0.684901 0.844465
122 1 0.76382 0.684901 0.844465
123 1 0.23618 0.315099 0.344465
124 1 0.73618 0.315099 0.344465
125 1 0.0138204 0.315099 0.844465
126 1 0.51382 0.315099 0.844465
127 1 0.48618 0.684901 0.344465
128 1 0.98618 0.684901 0.344465
129 1 0.311109 0.203368 0.84805
130 1 0.811109 0.203368 0.84805
131 1 0.188891 0.796632 0.34805
132 1 0.688891 0.796632 0.34805
133 1 0.0611092 0.796632 0.84805
134 1 0.561109 0.796632 0.84805
135 1 0.438891 0.203368 0.34805
136 1 0.938891 0.203368 0.34805
137 1 0.311109 0.703368 0.84805
138 1 0.811109 0.703368 0.84805
139 1 0.188891 0.296632 0.34805
140 1 0.688891 0.296632 0.34805
141 1 0.0611092 0.296632 0.84805
142 1 0.561109 0.296632 0.84805
143 1 0.438891 0.703368 0.34805
144 1 0.938891 0.703368 0.34805
145 1 0.336911 0.132551 0.889901
146 1 0.836911 0.132551 0.889901
147 1 0.163089 0.867449 0.389901
148 1 0.663089 0.867449 0.389901
149 1 0.0869107 0.867449 0.889901
150 1 0.586911 0.867449 0.889901
151 1 0.413089 0.132551 0.389901
152 1 0.913089 0.132551 0.389901
153 1 0.336911 0.632551 0.889901
154 1 0.836911 0.632551 0.889901
155 1 0.163089 0.367449 0.389901
156 1 0.663089 0.367449 0.389901
157 1 0.0869107 0.367449 0.889901
158 1 0.586911 0.367449 0.889901
159 1 0.413089 0.632551 0.389901
160 1 0.913089 0.632551 0.389901
161 1 0.316948 0.0427771 0.925058
162 1 0.816948 0.0427771 0.925058
163 1 0.183052 0.957223 0.425058
164 1 0.683052 0.957223 0.425058
165 1 0.0669475 0.957223 0.925058
166 1 0.566948 0.957223 0.925058
167 1 0.433052 0.0427771 0.425058
168 1 0.933052 0.0427771 0.425058
169 1 0.316948 0.542777 0.925058
170 1 0.816948 0.542777 0.925058
171 1 0.183052 0.457223 0.425058
172 1 0.683052 0.457223 0.425058
173 1 0.0669475 0.457223 0.925058
174 1 0.566948 0.457223 0.925058
175 1 0.433052 0.542777 0.425058
176 1 0.933052 0.542777 0.425058
177 1 0.270215 0.0229598 0.919217
178 1 0.770215 0.0229598 0.919217
179 1 0.229785 0.97704 0.419217
180 1 0.729785 0.97704 0.419217
181 1 0.020215 0.97704 0.919217
182 1 0.520215 0.97704 0.919217
183 1 0.479785 0.0229598 0.419217
184 1 0.979785 0.0229598 0.419217
185 1 0.270215 0.52296 0.919217
186 1 0.770215 0.52296 0.919217
187 1 0.229785 0.47704 0.419217
188 1 0.729785 0.47704 0.419217
189 1 0.020215 0.47704 0.919217
190 1 0.520215 0.47704 0.919217
191 1 0.479785 0.52296 0.419217
192 1 0.979785 0.52296 0.419217
193 1 0.24283 0.096432 0.881002
194 1 0.74283 0.096432 0.881002
195 1 0.25717 0.903568 0.381002
196 1 0.75717 0.903568 0.381002
197 1 0.49283 0.903568 0.881002
198 1 0.99283 0.903568 0.881002
199 1 0.00716994 0.096432 0.381002
200 1 0.50717 0.096432 0.381002
201 1 0.24283 0.596432 0.881002
202 1 0.74283 0.596432 0.881002
203 1 0.25717 0.403568 0.381002
204 1 0.75717 0.403568 0.381002
205 1 0.49283 0.403568 0.881002
206 1 0.99283 0.403568 0.881002
207 1 0.00716993 0.596432 0.381002
208 1 0.50717 0.596432 0.381002
209 1 0.23156 0.250311 0.799444
210 1 0.73156 0.250311 0.799444
211 1 0.26844 0.749689 0.299444
212 1 0.76844 0.749689 0.299444
213 1 0.48156 0.749689 0.799444
214 1 0.98156 0.749689 0.799444
215 1 0.01844 0.250311 0.299444
216 1 0.51844 0.250311 0.299444
217 1 0.23156 0.750311 0.799444
218 1 0.73156 0.750311 0.799444
219 1 0.26844 0.249689 0.299444
220 1 0.76844 0.249689 0.299444
221 1 0.48156 0.249689 0.799444
222 1 0.98156 0.249689 0.799444
223 1 0.01844 0.750311 0.299444
224 1 0.51844 0.750311 0.299444
225 2 0.211317 0.957902 0.193344
226 2 0.711317 0.957902 0.193344
227 2 0.288683 0.042098 0.693344
228 2 0.788683 0.042098 0.693344
229 2 0.461317 0.0420981 0.193344
230 2 0.961317 0.042098 0.193344
231 2 0.0386834 0.957902 0.693344
232 2 0.538683 0.957902 0.693344
233 2 0.211316 0.457902 0.193344
234 2 0.711316 0.457902 0.193344
235 2 0.288684 0.542098 0.693344
236 2 0.788684 0.542098 0.693344
237 2 0.461316 0.542098 0.193344
238 2 0.961316 0.542098 0.193344
239 2 0.0386835 0.457902 0.693344
240 2 0.538684 0.457902 0.693344
241 2 0.222773 0.271283 0.0274498
242 2 0.722773 0.271283 0.0274498
243 2 0.277227 0.728717 0.52745
244 2 0.777227 0.728717 0.52745
245 2 0.472773 0.728717 0.0274498
246 2 0.972773 0.728717 0.0274498
247 2 0.0272274 0.271283 0.52745
248 2 0.527227 0.271283 0.52745
249 2 0.222773 0.771283 0.0274498
250 2 0.722773 0.771283 0.0274498
251 2 0.277227 0.228717 0.52745
252 2 0.777227 0.228717 0.52745
253 2 0.472773 0.228717 0.0274498
254 2 0.972773 0.228717 0.0274498
255 2 0.0272274 0.771283 0.52745
256 2 0.527227 0.771283 0.52745
257 2 0.0700811 0.175678 0.121851
258 2 0.570081 0.175678 0.121851
259 2 0.429919 0.824322 0.621851
260 2 0.929919 0.824322 0.621851
261 2 0.320081 0.824322 0.121851
262 2 0.820081 0.824322 0.121851
263 2 0.179919 0.175678 0.621851
264 2 0.679919 0.175678 0.621851
265 2 0.0700813 0.675677 0.121851
266 2 0.570081 0.675677 0.121851
267 2 0.429919 0.324322 0.621851
268 2 0.929919 0.324323 0.621851
269 2 0.320081 0.324322 0.121851
270 2 0.820081 0.324322 0.121851
271 2 0.179919 0.675677 0.621851
272 2 0.679919 0.675678 0.621851
273 2 0.334765 0.289086 0.807453
274 2 0.834765 0.289086 0.807453
275 2 0.165235 0.710914 0.307453
276 2 0.665235 0.710914 0.307453
277 2 0.0847652 0.710914 0.807453
278 2 0.584765 0.710914 0.807453
279 2 0.415235 0.289086 0.307453
280 2 0.915235 0.289086 0.307453
281 2 0.334765 0.789087 0.807453
282 2 0.834765 0.789086 0.807453
283 2 0.165235 0.210914 0.307453
284 2 0.665235 0.210914 0.307453
285 2 0.0847652 0.210914 0.807453
286 2 0.584765 0.210914 0.807453
287 2 0.415235 0.789086 0.307453
288 2 0.915235 0.789086 0.307453
289 2 0.344894 0.969504 0.968159
290 2 0.844894 0.969504 0.968159
291 2 0.155106 0.030496 0.468159
292 2 0.655106 0.030496 0.468159
293 2 0.0948936 0.030496 0.968159
294 2 0.594894 0.030496 0.968159
295 2 0.405106 0.969504 0.468159
296 2 0.905106 0.969504 0.468159
297 2 0.344894 0.469504 0.968159
298 2 0.844894 0.469504 0.968159
299 2 0.155106 0.530496 0.468159
300 2 0.655106 0.530496 0.468159
301 2 0.0948936 0.530496 0.968159
302 2 0.594894 0.530496 0.968159
303 2 0.405106 0.469504 0.468159
304 2 0.905106 0.469504 0.468159
305 2 0.193433 0.0779305 0.87984
306 2 0.693433 0.0779305 0.87984
307 2 0.306567 0.92207 0.37984
308 2 0.806567 0.92207 0.37984
309 2 0.443433 0.92207 0.87984
310 2 0.943433 0.92207 0.87984
311 2 0.056567 0.0779305 0.37984
312 2 0.556567 0.0779305 0.37984
313 2 0.193433 0.57793 0.87984
314 2 0.693433 0.57793 0.87984
315 2 0.306567 0.42207 0.37984
316 2 0.806567 0.42207 0.37984
317 2 0.443433 0.42207 0.87984
318 2 0.943433 0.42207 0.87984
319 2 0.056567 0.57793 0.37984
320 2 0.556567 0.57793 0.37984
321 3 0.193121 0.862007 0.193811
322 3 0.693121 0.862007 0.193811
323 3 0.306879 0.137993 0.693811
324 3 0.806879 0.137993 0.693811
325 3 0.443121 0.137993 0.193811
326 3 0.943121 0.137993 0.193811
327 3 0.0568791 0.862007 0.693811
328 3 0.556879 0.862007 0.693811
329 3 0.193121 0.362007 0.193811
330 3 0.693121 0.362007 0.193811
331 3 0.306879 0.637993 0.693811
332 3 0.806879 0.637993 0.693811
333 3 0.443121 0.637993 0.193811
334 3 0.943121 0.637993 0.193811
335 3 0.0568791 0.362007 0.693811
336 3 0.556879 0.362007 0.693811
337 3 0.247865 0.985765 0.222373
338 3 0.747865 0.985765 0.222373
339 3 0.252135 0.0142354 0.722373
340 3 0.752135 0.0142354 0.722373
341 3 0.497865 0.0142354 0.222373
342 3 0.997865 0.0142354 0.222373
343 3 0.00213534 0.985765 0.722373
344 3 0.502135 0.985765 0.722373
345 3 0.247865 0.485765 0.222373
346 3 0.747864 0.485765 0.222373
347 3 0.252135 0.514235 0.722373
348 3 0.752136 0.514235 0.722373
349 3 0.497865 0.514235 0.222373
350 3 0.997864 0.514235 0.222373
351 3 0.00213549 0.485765 0.722373
352 3 0.502136 0.485765 0.722373
353 3 0.259573 0.230093 0.00575754
354 3 0.759573 0.230093 0.00575752
355 3 0.240427 0.769907 0.505758
356 3 0.740427 0.769907 0.505758
357 3 0.00957286 0.769907 0.00575754
358 3 0.509573 0.769907 0.00575754
359 3 0.490427 0.230093 0.505758
360 3 0.990427 0.230093 0.505758
361 3 0.259573 0.730093 0.00575753
362 3 0.759573 0.730093 0.00575751
363 3 0.240427 0.269907 0.505758
364 3 0.740427 0.269907 0.505758
365 3 0.00957289 0.269907 0.00575752
366 3 0.509573 0.269907 0.00575752
367 3 0.490427 0.730093 0.505758
368 3 0.990427 0.730093 0.505758
369 3 0.207893 0.367947 0.0130318
370 3 0.707893 0.367947 0.0130318
371 3 0.292107 0.632053 0.513032
372 3 0.792107 0.632053 0.513032
373 3 0.457893 0.632053 0.0130318
374 3 0.957893 0.632053 0.0130318
375 3 0.0421074 0.367947 0.513032
376 3 0.542107 0.367947 0.513032
377 3 0.207893 0.867947 0.0130318
378 3 0.707893 0.867947 0.0130318
379 3 0.292107 0.132053 0.513032
380 3 0.792107 0.132053 0.513032
381 3 0.457893 0.132053 0.0130318
382 3 0.957893 0.132053 0.0130318
383 3 0.0421074 0.867947 0.513032
384 3 0.542107 0.867947 0.513032
385 3 0.0581457 0.274892 0.135177
386 3 0.558146 0.274892 0.135177
387 3 0.441854 0.725108 0.635177
388 3 0.941854 0.725108 0.635177
389 3 0.308146 0.725108 0.135177
390 3 0.808146 0.725108 0.135177
391 3 0.191854 0.274892 0.635177
392 3 0.691854 0.274892 0.635177
393 3 0.0581458 0.774892 0.135177
394 3 0.558146 0.774892 0.135177
395 3 0.441854 0.225108 0.635177
396 3 0.941854 0.225108 0.635177
397 3 0.308146 0.225108 0.135177
398 3 0.808146 0.225108 0.135177
399 3 0.191854 0.774892 0.635177
400 3 0.691854 0.774892 0.635177
401 3 0.0451956 0.0918072 0.111015
402 3 0.545196 0.0918072 0.111015
403 3 0.454804 0.908193 0.611015
404 3 0.954804 0.908193 0.611015
405 3 0.295196 0.908193 0.111015
406 3 0.795196 0.908193 0.111015
407 3 0.204804 0.0918072 0.611015
408 3 0.704804 0.0918072 0.611015
409 3 0.0451956 0.591807 0.111015
410 3 0.545196 0.591807 0.111015
411 3 0.454804 0.408193 0.611015
412 3 0.954804 0.408193 0.611015
413 3 0.295196 0.408193 0.111015
414 3 0.795196 0.408193 0.111015
415 3 0.204804 0.591807 0.611015
416 3 0.704804 0.591807 0.611015
417 3 0.316456 0.384789 0.804768
418 3 0.816456 0.384789 0.804768
419 3 0.183544 0.615212 0.304768
420 3 0.683544 0.615212 0.304768
421 3 0.0664557 0.615212 0.804768
422 3 0.566456 0.615211 0.804768
423 3 0.433544 0.384789 0.304768
424 3 0.933544 0.384789 0.304768
425 3 0.316456 0.884788 0.804768
426 3 0.816456 0.884788 0.804768
427 3 0.183544 0.115212 0.304768
428 3 0.683544 0.115211 0.304768
429 3 0.0664557 0.115212 0.804768
430 3 0.566456 0.115211 0.804768
431 3 0.433544 0.884788 0.304768
432 3 0.933544 0.884788 0.304768
433 3 0.372263 0.261648 0.780075
434 3 0.872263 0.261648 0.780075
435 3 0.127737 0.738352 0.280075
436 3 0.627737 0.738352 0.280075
437 3 0.122263 0.738352 0.780075
438 3 0.622263 0.738352 0.780075
439 3 0.377737 0.261648 0.280075
440 3 0.877737 0.261648 0.280075
441 3 0.372263 0.761648 0.780075
442 3 0.872263 0.761648 0.780075
443 3 0.127737 0.238352 0.280075
444 3 0.627737 0.238352 0.280075
445 3 0.122263 0.238352 0.780075
446 3 0.622263 0.238352 0.780075
447 3 0.377737 0.761648 0.280075
448 3 0.877737 0.761648 0.280075
449 3 0.378584 0.0141882 0.997531
450 3 0.878584 0.0141882 0.997531
451 3 0.121416 0.985812 0.497531
452 3 0.621416 0.985812 0.497531
453 3 0.128584 0.985812 0.997531
454 3 0.628584 0.985812 0.997531
455 3 0.371416 0.0141882 0.497531
456 3 0.871416 0.0141882 0.497531
457 3 0.378584 0.514188 0.997531
458 3 0.878584 0.514188 0.997531
459 3 0.121416 0.485812 0.497531
460 3 0.621416 0.485812 0.497531
461 3 0.128584 0.485812 0.997531
462 3 0.628584 0.485812 0.997531
463 3 0.371416 0.514188 0.497531
464 3 0.871416 0.514188 0.497531
465 3 0.33319 0.868203 0.972803
466 3 0.83319 0.868203 0.972803
467 3 0.16681 0.131797 0.472803
468 3 0.66681 0.131797 0.472803
469 3 0.08319 0.131797 0.972803
470 3 0.58319 0.131797 0.972803
471 3 0.41681 0.868203 0.472803
472 3 0.91681 0.868203 0.472803
473 3 0.33319 0.368203 0.972803
474 3 0.83319 0.368203 0.972803
475 3 0.16681 0.631797 0.472803
476 3 0.66681 0.631797 0.472803
477 3 0.0831901 0.631797 0.972803
478 3 0.58319 0.631797 0.972803
479 3 0.41681 0.368203 0.472803
480 3 0.91681 0.368203 0.472803
481 3 0.180497 0.982997 0.858794
482 3 0.680497 0.982997 0.858794
483 3 0.319503 0.017003 0.358794
484 3 0.819503 0.017003 0.358794
485 3 0.430497 0.017003 0.858794
486 3 0.930497 0.017003 0.858794
487 3 0.0695035 0.982997 0.358794
488 3 0.569503 0.982997 0.358794
489 3 0.180497 0.482997 0.858794
490 3 0.680497 0.482997 0.858794
491 3 0.319503 0.517003 0.358794
492 3 0.819503 0.517003 0.358794
493 3 0.430497 0.517003 0.858794
494 3 0.930497 0.517003 0.858794
495 3 0.0695035 0.482997 0.358794
496 3 0.569503 0.482997 0.358794
497 3 0.169604 0.158105 0.901193
498 3 0.669604 0.158105 0.901193
499 3 0.330396 0.841895 0.401193
500 3 0.830396 0.841895 0.401193
501 3 0.419604 0.841895 0.901193
502 3 0.919604 0.841895 0.901193
503 3 0.0803965 0.158105 0.401193
504 3 0.580396 0.158105 0.401193
505 3 0.169604 0.658105 0.901193
506 3 0.669604 0.658105 0.901193
507 3 0.330396 0.341895 0.401193
508 3 0.830396 0.341895 0.401193
509 3 0.419604 0.341895 0.901193
510 3 0.919604 0.341895 0.901193
511 3 0.0803965 0.658105 0.401193
512 3 0.580396 0.658105 0.401193
513 4 0.136614 0.969377 0.247928
514 4 0.636614 0.969377 0.247928
515 4 0.363386 0.0306233 0.747928
516 4 0.863386 0.0306233 0.747928
517 4 0.386614 0.0306233 0.247928
518 4 0.886614 0.0306233 0.247928
519 4 0.113386 0.969377 0.747928
520 4 0.613386 0.969377 0.747928
521 4 0.136614 0.469377 0.247928
522 4 0.636614 0.469377 0.247928
523 4 0.363386 0.530623 0.747928
524 4 0.863386 0.530623 0.747928
525 4 0.386614 0.530623 0.247928
526 4 0.886614 0.530623 0.247928
527 4 0.113386 0.469377 0.747928
528 4 0.613386 0.469377 0.747928
529 4 0.103749 0.919459 0.181518
530 4 0.603749 0.919459 0.181518
531 4 0.396251 0.0805412 0.681518
532 4 0.896251 0.0805411 0.681518
533 4 0.353749 0.0805412 0.181518
534 4 0.853749 0.0805411 0.181518
535 4 0.146251 0.919459 0.681518
536 4 0.646251 0.919459 0.681518
537 4 0.103749 0.419459 0.181518
538 4 0.603749 0.419459 0.181518
539 4 0.396251 0.580541 0.681518
540 4 0.896251 0.580541 0.681518
541 4 0.353749 0.580541 0.181518
542 4 0.853749 0.580541 0.181518
543 4 0.146251 0.419459 0.681518
544 4 0.646251 0.419459 0.681518
545 4 0.0882918 0.0481255 0.230854
546 4 0.588292 0.0481255 0.230854
547 4 0.411708 0.951875 0.730854
548 4 0.911708 0.951875 0.730854
549 4 0.338292 0.951875 0.230854
550 4 0.838292 0.951875 0.230854
551 4 0.161708 0.0481255 0.730854
552 4 0.661708 0.0481255 0.730854
553 4 0.0882919 0.548125 0.230854
554 4 0.588292 0.548125 0.230854
555 4 0.411708 0.451874 0.730854
556 4 0.911708 0.451874 0.730854
557 4 0.338292 0.451875 0.230854
558 4 0.838292 0.451875 0.230854
559 4 0.161708 0.548125 0.730854
560 4 0.661708 0.548126 0.730854
561 4 0.251858 0.099373 0.107895
562 4 0.751858 0.099373 0.107895
563 4 0.248142 0.900627 0.607895
564 4 0.748142 0.900627 0.607895
565 4 0.501858 0.900627 0.107895
566 4 0.00185837 0.900627 0.107895
567 4 0.998142 0.099373 0.607895
568 4 0.498142 0.099373 0.607895
569 4 0.251858 0.599373 0.107895
570 4 0.751858 0.599373 0.107895
571 4 0.248142 0.400627 0.607895
572 4 0.748142 0.400627 0.607895
573 4 0.501858 0.400627 0.107895
574 4 0.00185834 0.400627 0.107895
575 4 0.998142 0.599373 0.607895
576 4 0.498142 0.599373 0.607895
577 4 0.132839 0.29106 0.0487318
578 4 0.632839 0.29106 0.0487318
579 4 0.367161 0.70894 0.548732
580 4 0.867161 0.70894 0.548732
581 4 0.382839 0.70894 0.0487318
582 4 0.882839 0.70894 0.0487318
583 4 0.117161 0.29106 0.548732
584 4 0.617161 0.29106 0.548732
585 4 0.132839 0.791059 0.048732
586 4 0.632839 0.791059 0.048732
587 4 0.367161 0.208941 0.548732
588 4 0.867161 0.208941 0.548732
589 4 0.382839 0.208941 0.048732
590 4 0.882839 0.208941 0.048732
591 4 0.117161 0.791059 0.548732
592 4 0.617161 0.791059 0.548732
593 4 0.248235 0.2833 0.752929
594 4 0.748235 0.2833 0.752929
595 4 0.251765 0.7167 0.252929
596 4 0.751765 0.7167 0.252929
597 4 0.498235 0.7167 0.752929
598 4 0.998235 0.7167 0.752929
599 4 0.00176546 0.2833 0.252929
600 4 0.501765 0.2833 0.252929
601 4 0.248235 0.7833 0.752929
602 4 0.748235 0.7833 0.752929
603 4 0.251765 0.2167 0.252929
604 4 0.751765 0.2167 0.252929
605 4 0.498235 0.2167 0.752929
606 4 0.998235 0.2167 0.752929
607 4 0.00176546 0.7833 0.252929
608 4 0.501765 0.7833 0.252929
609 4 0.202743 0.198227 0.781664
610 4 0.702743 0.198227 0.781664
611 4 0.297257 0.801773 0.281664
612 4 0.797257 0.801773 0.281664
613 4 0.452743 0.801773 0.781664
614 4 0.952743 0.801773 0.781664
615 4 0.0472571 0.198227 0.281664
616 4 0.547257 0.198227 0.281664
617 4 0.202743 0.698227 0.781664
618 4 0.702743 0.698227 0.781664
619 4 0.297257 0.301773 0.281664
620 4 0.797257 0.301773 0.281664
621 4 0.452743 0.301773 0.781664
622 4 0.952743 0.301773 0.781664
623 4 0.0472571 0.698227 0.281664
624 4 0.547257 0.698227 0.281664
625 4 0.214851 0.320705 0.826678
626 4 0.714851 0.320705 0.826678
627 4 0.285149 0.679295 0.326678
628 4 0.785149 0.679295 0.326678
629 4 0.464851 0.679295 0.826678
630 4 0.964851 0.679295 0.826678
631 4 0.0351493 0.320705 0.326678
632 4 0.535149 0.320705 0.326678
633 4 0.214851 0.820705 0.826678
634 4 0.714851 0.820705 0.826678
635 4 0.285149 0.179295 0.326678
636 4 0.785149 0.179295 0.326678
637 4 0.464851 0.179295 0.826678
638 4 0.964851 0.179295 0.826678
639 4 0.0351493 0.820705 0.326678
640 4 0.535149 0.820705 0.326678
641 4 0.373658 0.145954 0.893686
642 4 0.873658 0.145954 0.893686
643 4 0.126342 0.854046 0.393686
644 4 0.626342 0.854046 0.393686
645 4 0.123658 0.854046 0.893686
646 4 0.623658 0.854046 0.893686
647 4 0.376342 0.145954 0.393686
648 4 0.876342 0.145954 0.393686
649 4 0.373658 0.645954 0.893686
650 4 0.873658 0.645954 0.893686
651 4 0.126342 0.354046 0.393686
652 4 0.626342 0.354046 0.393686
653 4 0.123658 0.354046 0.893686
654 4 0.623658 0.354046 0.893686
655 4 0.376342 0.645954 0.393686
656 4 0.876342 0.645954 0.393686
657 4 0.253915 0.952319 0.945654
658 4 0.753915 0.952319 0.945654
659 4 0.246085 0.0476812 0.445654
660 4 0.746085 0.0476812 0.445654
661 4 0.00391507 0.0476812 0.945654
662 4 0.503915 0.0476812 0.945654
663 4 0.496085 0.952319 0.445654
664 4 0.996085 0.952319 0.445654
665 4 0.253915 0.452319 0.945654
666 4 0.753915 0.452319 0.945654
667 4 0.246085 0.547681 0.445654
668 4 0.746085 0.547681 0.445654
669 4 0.00391507 0.547681 0.945654
670 4 0.503915 0.547681 0.945654
671 4 0.496085 0.452319 0.445654
672 4 0.996085 0.452319 0.445654
ITEM: TIMESTEP
1000
ITEM: NUMBER OF ATOMS
672
ITEM: BOX BOUNDS xy xz yz pp pp pp
-5.9493773296530961e-01 3.0704159717263853e+01 9.0404450242268869e-02
1.0380196199132311e-01 1.1940822527860337e+01 3.6817183056337174e-02
-8.5104287999469541e-01 2.0868043078394702e+01 -1.0937579244836268e-01
ITEM: ATOMS id type xs ys zs
1 1 0.151648 0.0818113 0.162401
2 1 0.638392 0.0657011 0.166606
3 1 0.363269 0.914576 0.655756
4 1 0.864431 0.951258 0.64807
5 1 0.406984 0.901755 0.157121
6 1 0.89005 0.918866 0.149042
7 1 0.0998211 0.0697767 0.636921
8 1 0.598181 0.0512728 0.651285
9 1 0.136104 0.577099 0.172183
10 1 0.651435 0.561652 0.17822
11 1 0.347479 0.420605 0.669596
12 1 0.866121 0.441259 0.654486
13 1 0.381964 0.401774 0.168901
14 1 0.897838 0.428664 0.170516
15 1 0.11478 0.592045 0.665382
16 1 0.600388 0.579653 0.661335
17 1 0.196429 0.0617637 0.151893
18 1 0.683657 0.041271 0.160137
19 1 0.317609 0.932165 0.649512
20 1 0.819204 0.971868 0.644387
21 1 0.452516 0.916378 0.154817
22 1 0.93582 0.953693 0.144684
23 1 0.0545956 0.0577793 0.627985
24 1 0.552674 0.0420663 0.646484
25 1 0.180788 0.553326 0.160211
26 1 0.697053 0.556976 0.168444
27 1 0.302027 0.448696 0.66425
28 1 0.820997 0.469258 0.653287
29 1 0.426322 0.430753 0.162619
30 1 0.940798 0.447718 0.151209
31 1 0.0695395 0.56586 0.656339
32 1 0.555767 0.554181 0.649183
33 1 0.216335 0.131583 0.107157
34 1 0.708899 0.119283 0.124597
35 1 0.29831 0.866531 0.601958
36 1 0.798384 0.903982 0.598213
37 1 0.475866 0.852464 0.110208
38 1 0.960205 0.887638 0.101237
39 1 0.0367649 0.131162 0.583893
40 1 0.535235 0.11433 0.599652
41 1 0.199711 0.608727 0.109757
42 1 0.714544 0.62297 0.119788
43 1 0.280866 0.384448 0.617181
44 1 0.799718 0.402951 0.606089
45 1 0.449645 0.370549 0.115531
46 1 0.958586 0.374788 0.103914
47 1 0.048201 0.612631 0.604784
48 1 0.535772 0.61252 0.599275
49 1 0.19259 0.216127 0.0730709
50 1 0.690064 0.210645 0.0901342
51 1 0.316076 0.767615 0.57304
52 1 0.817229 0.811209 0.566068
53 1 0.456182 0.76638 0.0709933
54 1 0.944326 0.796012 0.0665938
55 1 0.0562056 0.224287 0.554351
56 1 0.55493 0.204683 0.567548
57 1 0.177391 0.690759 0.0722166
58 1 0.690914 0.704785 0.0837239
59 1 0.301059 0.304354 0.577264
60 1 0.816772 0.31931 0.567281
61 1 0.432601 0.277399 0.0799654
62 1 0.937404 0.275315 0.0834432
63 1 0.0682932 0.69724 0.565403
64 1 0.558495 0.686169 0.560134
65 1 0.149374 0.244708 0.0919807
66 1 0.645385 0.237323 0.100239
67 1 0.359072 0.743141 0.588761
68 1 0.862241 0.796659 0.57554
69 1 0.411848 0.752047 0.0777823
70 1 0.900876 0.760614 0.0760585
71 1 0.09998 0.242953 0.572242
72 1 0.599244 0.224239 0.581306
73 1 0.134358 0.719563 0.0887085
74 1 0.647746 0.714243 0.103458
75 1 0.346296 0.283955 0.586563
76 1 0.861637 0.294832 0.578607
77 1 0.388333 0.247454 0.0903604
78 1 0.895892 0.252972 0.107015
79 1 0.111515 0.726412 0.578991
80 1 0.60281 0.711184 0.572931
81 1 0.127346 0.174579 0.13664
82 1 0.620048 0.162791 0.136242
83 1 0.383685 0.819262 0.626574
84 1 0.887054 0.864467 0.617436
85 1 0.386607 0.814835 0.122413
86 1 0.874142 0.825392 0.11625
87 1 0.122054 0.167202 0.612656
88 1 0.619886 0.146129 0.621946
89 1 0.112127 0.657305 0.136488
90 1 0.625629 0.639066 0.144628
91 1 0.371173 0.346269 0.629817
92 1 0.888045 0.353279 0.6187
93 1 0.361108 0.312031 0.13258
94 1 0.873552 0.333302 0.144361
95 1 0.135838 0.666335 0.625565
96 1 0.623496 0.653815 0.620944
97 1 0.128098 0.987225 0.199398
98 1 0.609224 0.983431 0.201716
99 1 0.387416 0.993562 0.701747
100 1 0.890619 0.0116831 0.70048
101 1 0.375378 0.973008 0.196194
102 1 0.860824 0.980781 0.197178
103 1 0.126678 0.977139 0.66948
104 1 0.625868 0.962685 0.686394
105 1 0.114092 0.506947 0.221864
106 1 0.62848 0.474993 0.221676
107 1 0.372477 0.487459 0.719797
108 1 0.896539 0.504905 0.69821
109 1 0.357423 0.465048 0.220145
110 1 0.876915 0.503036 0.22146
111 1 0.141869 0.51943 0.709356
112 1 0.624387 0.511231 0.711417
113 1 0.2693 0.148791 0.826306
114 1 0.781987 0.206906 0.852587
115 1 0.226682 0.829997 0.342597
116 1 0.72341 0.832994 0.343423
117 1 0.028885 0.8332 0.839693
118 1 0.52186 0.851509 0.8384
119 1 0.475969 0.156913 0.328075
120 1 0.982341 0.189545 0.321442
121 1 0.271762 0.658793 0.856482
122 1 0.783289 0.706162 0.837094
123 1 0.230015 0.320403 0.324819
124 1 0.729392 0.332026 0.34456
125 1 0.0235429 0.311117 0.828867
126 1 0.528658 0.324072 0.846515
127 1 0.465812 0.676351 0.345889
128 1 0.969257 0.669058 0.329047
129 1 0.312667 0.176424 0.840768
130 1 0.827368 0.205417 0.855748
131 1 0.181066 0.807567 0.352379
132 1 0.678328 0.820004 0.351214
133 1 0.0737517 0.815078 0.850117
134 1 0.568048 0.845169 0.84606
135 1 0.431233 0.184366 0.336793
136 1 0.936484 0.197722 0.325603
137 1 0.317089 0.676719 0.864807
138 1 0.829347 0.702169 0.844729
139 1 0.185548 0.293185 0.330764
140 1 0.684426 0.30619 0.346577
141 1 0.0673216 0.275724 0.840594
142 1 0.575304 0.322821 0.844504
143 1 0.420283 0.700889 0.351777
144 1 0.925411 0.703102 0.346355
145 1 0.333717 0.1108 0.888197
146 1 0.848069 0.126989 0.896318
147 1 0.160802 0.867706 0.400944
148 1 0.656063 0.89994 0.391492
149 1 0.0914584 0.876053 0.901268
150 1 0.588348 0.931024 0.881869
151 1 0.408517 0.123576 0.381925
152 1 0.91908 0.118161 0.368458
153 1 0.335523 0.615206 0.914637
154 1 0.846806 0.622977 0.886929
155 1 0.164076 0.361981 0.37675
156 1 0.659563 0.374531 0.389162
157 1 0.0942689 0.348558 0.87654
158 1 0.594163 0.402268 0.886556
159 1 0.397481 0.623451 0.388047
160 1 0.908559 0.647533 0.400188
161 1 0.309501 0.0364848 0.926151
162 1 0.821885 0.0684076 0.940544
163 1 0.183557 0.943239 0.441884
164 1 0.680705 0.979125 0.427103
165 1 0.065395 0.946635 0.941816
166 1 0.562508 0.000879046 0.925093
167 1 0.430639 0.0528717 0.426669
168 1 0.941117 0.0590549 0.415762
169 1 0.312536 0.534059 0.95107
170 1 0.818969 0.55333 0.925638
171 1 0.183148 0.451464 0.410869
172 1 0.67872 0.453909 0.430599
173 1 0.074004 0.442489 0.908753
174 1 0.5706 0.461048 0.93389
175 1 0.41844 0.532976 0.421063
176 1 0.931221 0.554476 0.427418
177 1 0.265661 0.010356 0.908911
178 1 0.776433 0.0670891 0.931786
179 1 0.225971 0.971012 0.423765
180 1 0.724223 0.00355041 0.409697
181 1 0.0229604 0.972537 0.921269
182 1 0.519964 0.0252677 0.905374
183 1 0.474045 0.0228076 0.414044
184 1 0.987005 0.0507923 0.405084
185 1 0.270303 0.502827 0.931783
186 1 0.773849 0.558562 0.915168
187 1 0.227309 0.476455 0.395907
188 1 0.724607 0.476646 0.425234
189 1 0.0326755 0.485848 0.890311
190 1 0.524532 0.463506 0.928379
191 1 0.461647 0.504276 0.407278
192 1 0.97042 0.508903 0.39918
193 1 0.243895 0.0654033 0.859813
194 1 0.753437 0.136608 0.887807
195 1 0.250165 0.908675 0.379265
196 1 0.747215 0.926658 0.369044
197 1 0.498181 0.945795 0.864978
198 1 0.00128822 0.911293 0.874082
199 1 0.00797438 0.120595 0.361361
200 1 0.497694 0.0760741 0.365704
201 1 0.248166 0.568508 0.884784
202 1 0.755103 0.641223 0.874987
203 1 0.252874 0.411802 0.354045
204 1 0.748761 0.422989 0.379373
205 1 0.50277 0.396255 0.884167
206 1 0.00541529 0.410866 0.857255
207 1 0.99268 0.578167 0.357136
208 1 0.486342 0.579452 0.369372
209 1 0.240756 0.213912 0.778838
210 1 0.758436 0.283599 0.805463
211 1 0.25196 0.773639 0.292925
212 1 0.749869 0.750426 0.300369
213 1 0.495026 0.755952 0.807662
214 1 0.00810777 0.76476 0.786128
215 1 0.0075945 0.257886 0.27301
216 1 0.501615 0.217296 0.277989
217 1 0.247743 0.729609 0.806744
218 1 0.761062 0.780449 0.786198
219 1 0.258691 0.2503 0.277431
220 1 0.761622 0.268762 0.299311
221 1 0.502236 0.257292 0.797825
222 1 0.993047 0.234889 0.790207
223 1 0.993576 0.742397 0.281189
224 1 0.497376 0.753775 0.309463