LAMMPS data file via write_data, version 15 Apr 2020, timestep = 80000

672 atoms
4 atom types

-4.5334408641216939e-01 3.0435344437411850e+01 xlo xhi
5.0716010706463788e-01 1.1646840175235528e+01 ylo yhi
-1.1980111962786193e+00 2.1215011394678623e+01 zlo zhi
1.6538887826152471e-01 -2.9166620339384031e-01 -2.0598919135405330e-02 xy xz yz

Masses

1 12.0107
2 14.0067
3 15.9994
4 1.00794

Atoms # full

1 1 1 2.4439560196991818e-02 3.9097997912510221e+00 1.5760345401217626e+00 2.3256993997649773e+00 0 0 0
2 1 1 2.7576946590673567e-02 1.9404657975273444e+01 1.7616192170675584e+00 1.9667128839771286e+00 0 0 0
3 1 1 2.6624166666214630e-02 1.0653509721761651e+01 1.0573047202193095e+01 1.3278733172636411e+01 0 0 0
4 1 1 2.9012846559169900e-02 2.6050981130996373e+01 1.0879885112936446e+01 1.3761789710575737e+01 0 0 0
5 1 1 2.8516914513277241e-02 1.1791680956404363e+01 1.0614438115274137e+01 2.3528331080459939e+00 0 0 0
6 1 1 2.4448523672590122e-02 2.7103275485942145e+01 1.0162273891124840e+01 2.5843954397239597e+00 0 0 0
7 1 1 1.8853166543673128e-02 2.5032976013241095e+00 1.2175935598848833e+00 1.3625999896112772e+01 0 0 0
8 1 1 1.8568482054451003e-02 1.8058587442538514e+01 1.2746330889098720e+00 1.3446812460134540e+01 0 0 0
9 1 1 3.0247253962857636e-02 4.2415278496971167e+00 7.2427778262971847e+00 2.2600041155381274e+00 0 0 0
10 1 1 2.6189208911722578e-02 1.9340591303152245e+01 6.9320871735786476e+00 2.3780682132642688e+00 0 0 0
11 1 1 2.0877549572158427e-02 1.0757845636467300e+01 5.0281293547728874e+00 1.3395109462498858e+01 0 0 0
12 1 1 2.8320828198191868e-02 2.5586563132385336e+01 5.0861876969938926e+00 1.3992225491975121e+01 0 0 0
13 1 1 2.4147755059187506e-02 1.1403086484316333e+01 5.2442035751349252e+00 2.4669154782132678e+00 0 0 0
14 1 1 2.1479070671501257e-02 2.6911938766289708e+01 4.9141425426590244e+00 2.8911710851181835e+00 0 0 0
15 1 1 2.1309028068825450e-02 3.0297441409931309e+00 7.0462998919028399e+00 1.3629784785049559e+01 0 0 0
16 1 1 2.3953960171932721e-02 1.8275670648166823e+01 6.9615101847990193e+00 1.3610634784463075e+01 0 0 0
17 1 1 2.9239927917531897e-02 5.2993584575008210e+00 1.1768726355019821e+00 2.1514091746801789e+00 0 0 0
18 1 1 4.1909956045827201e-02 2.0733359633914024e+01 1.2706326343546528e+00 1.8074628473462226e+00 0 0 0
19 1 1 3.1805032649883422e-02 9.3015451920673531e+00 1.1084640063189870e+01 1.3043765839976482e+01 0 0 0
20 1 1 2.9818641159947843e-02 2.4658752934278439e+01 1.1162666010204251e+01 1.3528435166733857e+01 0 0 0
21 1 1 2.4392763387868863e-02 1.3160677626023901e+01 1.0990255415271147e+01 2.1793848016946482e+00 0 0 0
22 1 1 3.2551219748126206e-02 2.8500391675260886e+01 1.0362211511736898e+01 2.4900433701197136e+00 0 0 0
23 1 1 3.2670753093210381e-02 1.0820147565028577e+00 1.0484860335140231e+00 1.3566636612558368e+01 0 0 0
24 1 1 2.9676609235954495e-02 1.6639154765004108e+01 1.0319441097794972e+00 1.3259341782863192e+01 0 0 0
25 1 1 3.0029019364651813e-02 5.6425288323121459e+00 6.9729534823745922e+00 2.1925214146346668e+00 0 0 0
26 1 1 3.2559695760851971e-02 2.0703550772841311e+01 6.6143313914703477e+00 2.1020555382387154e+00 0 0 0
27 1 1 3.3458233165284901e-02 9.4503718944760564e+00 5.5438312637156324e+00 1.3254014112665862e+01 0 0 0
28 1 1 3.6627563602458751e-02 2.4230025374191989e+01 5.4020397136378087e+00 1.3748497141547702e+01 0 0 0
29 1 1 2.7026203430110789e-02 1.2793223335907415e+01 5.5148936102860882e+00 2.2580946339370054e+00 0 0 0
30 1 1 2.8694787917124966e-02 2.8327484495259434e+01 5.0475371118664443e+00 2.7973885469936022e+00 0 0 0
31 1 1 3.5369367339686320e-02 1.6551631664556785e+00 6.6345740409724687e+00 1.3433711141971024e+01 0 0 0
32 1 1 3.1066972321104801e-02 1.6927011426483119e+01 6.6491771524108421e+00 1.3281039509114253e+01 0 0 0
33 1 1 1.7165588051181895e-02 5.9624280595674755e+00 1.9127251800856624e+00 1.1125353504224686e+00 0 0 0
34 1 1 1.8401909122648871e-02 2.1505829315038891e+01 1.8590564738095587e+00 7.5563007019791173e-01 0 0 0
35 1 1 1.3407789785443630e-02 8.6141504886598721e+00 1.0459324513470278e+01 1.1957812188795232e+01 0 0 0
36 1 1 8.8589647985326259e-03 2.3945690787516202e+01 1.0456427539275410e+01 1.2485498562140480e+01 0 0 0
37 1 1 1.6430280795285170e-02 1.4004118992601654e+01 1.0183399384041326e+01 1.3477320932249541e+00 0 0 0
38 1 1 1.3237684375072879e-02 2.9227083230763832e+01 9.5764145566664070e+00 1.5307281364789582e+00 0 0 0
39 1 1 1.8832556454806984e-02 3.3055373553719780e-01 1.7284882625968432e+00 1.2530907880995965e+01 0 0 0
40 1 1 1.5278234222085563e-02 1.5990261528170803e+01 1.8247417124973679e+00 1.2296495024822956e+01 0 0 0
41 1 1 1.6169741891975443e-02 6.4230167248161765e+00 7.6520931640775842e+00 1.2309627325063990e+00 0 0 0
42 1 1 2.6320677077597044e-02 2.1415567036636300e+01 7.3654206218808618e+00 1.1070415511888725e+00 0 0 0
43 1 1 1.5151033002287068e-02 8.7126023232124119e+00 4.9545439440051737e+00 1.2161592024989094e+01 0 0 0
44 1 1 1.9231437065411638e-02 2.3565201955892604e+01 4.6167327551999797e+00 1.2742381557771347e+01 0 0 0
45 1 1 1.6249654145265139e-02 1.3479004523408967e+01 4.7541261322780102e+00 1.2440301244937348e+00 0 0 0
46 1 1 1.4550307958350033e-02 2.8993975266962117e+01 4.2950902949125549e+00 1.7466982855204023e+00 0 0 0
47 1 1 1.6831653731410389e-02 9.3555227822804476e-01 7.3369572797987797e+00 1.2422757489098959e+01 0 0 0
48 1 1 2.8386470353378379e-02 1.6378753469433327e+01 7.2699747614186521e+00 1.2128989784346874e+01 0 0 0
49 1 1 3.8566481944514515e-02 5.2982400896739446e+00 2.7878107024057788e+00 1.9108534977831848e-01 0 0 0
50 1 1 3.8844875493106765e-02 2.1100345023091187e+01 3.0382982134802807e+00 5.5077890345724523e-02 0 0 0
51 1 1 3.7715018161617209e-02 9.2400333711728155e+00 9.5806847965168629e+00 1.1039071617163666e+01 0 0 0
52 1 1 4.2130808801623752e-02 2.4540254053199682e+01 9.3331587670288592e+00 1.1830318804779377e+01 0 0 0
53 1 1 4.6525494864596569e-02 1.3406085391981229e+01 9.2590025567455640e+00 4.2136605631251811e-01 0 0 0
54 1 1 4.1306933864821579e-02 2.8582279786558058e+01 8.6963842622340408e+00 6.4153591891919426e-01 0 0 0
55 1 1 4.2772967721160828e-02 1.0187605421532413e+00 2.5259241863402861e+00 1.1536588614266897e+01 0 0 0
56 1 1 4.2904394008986976e-02 1.6662199302568073e+01 2.7860283958191032e+00 1.1458339459718331e+01 0 0 0
57 1 1 3.6794176060646569e-02 5.8753115070728370e+00 8.5904422101973914e+00 2.9804814978526406e-01 0 0 0
58 1 1 5.3387972539374925e-02 2.0734108117248077e+01 8.3360330924221451e+00 3.5923586339836877e-01 0 0 0
59 1 1 3.6939834430778570e-02 9.1959314799987304e+00 3.9437443553870035e+00 1.1289852745909618e+01 0 0 0
60 1 1 3.6708104414381847e-02 2.4337323524134305e+01 3.7589313081484010e+00 1.1905041548152900e+01 0 0 0
61 1 1 4.0309285030147336e-02 1.2697389780647111e+01 3.8777840749264705e+00 4.0222546118468561e-01 0 0 0
62 1 1 4.4291236594708537e-02 2.8309344048622371e+01 3.4855715532666727e+00 8.5695247734038871e-01 0 0 0
63 1 1 3.7995103024591866e-02 1.6216438894257059e+00 8.3922642156028644e+00 1.1702920698296120e+01 0 0 0
64 1 1 4.8973862448757614e-02 1.7149774581096871e+01 8.2659002366935077e+00 1.1426904666139185e+01 0 0 0
65 1 1 1.8581466344173965e-02 3.9103030894807373e+00 2.9417766562358647e+00 3.2032326541937928e-01 0 0 0
66 1 1 1.6926083426998927e-02 1.9682283352260846e+01 3.3182000895780277e+00 1.1206492029396808e-01 0 0 0
67 1 1 2.0313434822515169e-02 1.0653602621692983e+01 9.2922983420884293e+00 1.1241444981661127e+01 0 0 0
68 1 1 1.5363934044080946e-02 2.5873508694424423e+01 8.9855271831026151e+00 1.2219616939682540e+01 0 0 0
69 1 1 2.3721293470805267e-02 1.2028800972425350e+01 8.9403516794772280e+00 5.5154824582197071e-01 0 0 0
70 1 1 8.9657032700865627e-03 2.7159131735409900e+01 8.5150928712884593e+00 8.0460566309090309e-01 0 0 0
71 1 1 2.5334958523609601e-02 2.4350074939113826e+00 2.3912578299184410e+00 1.1534579302276660e+01 0 0 0
72 1 1 1.9228375835718372e-02 1.8037973868603117e+01 2.9309791526596802e+00 1.1714760591008206e+01 0 0 0
73 1 1 1.7551169445591999e-02 4.4682037039260303e+00 8.8232245237697384e+00 3.6332649833994868e-01 0 0 0
74 1 1 2.7652671580542208e-02 1.9302369846630580e+01 8.5299149278355166e+00 6.2702262643473849e-01 0 0 0
75 1 1 1.2381435697937853e-02 1.0550199827406798e+01 3.5727451876563792e+00 1.1424628394312053e+01 0 0 0
76 1 1 1.4607165605421565e-02 2.5667082889202842e+01 3.4677859044737729e+00 1.2156551955020074e+01 0 0 0
77 1 1 1.8685002083422234e-02 1.1256230769800670e+01 3.8017544669533683e+00 5.7347952988798645e-01 0 0 0
78 1 1 7.2714110532850068e-03 2.6880576269627195e+01 3.4376411272544107e+00 1.0013818049516110e+00 0 0 0
79 1 1 3.1329843771587471e-03 2.9735577050936755e+00 8.7542132342570405e+00 1.1966135809007632e+01 0 0 0
80 1 1 1.2269865753723099e-02 1.8465461632187861e+01 8.6383696679772655e+00 1.1881805336053622e+01 0 0 0
81 1 1 3.7158226617481055e-02 3.2262605547005165e+00 2.5319950137549028e+00 1.5156448774188767e+00 0 0 0
82 1 1 3.7310484028588373e-02 1.8811555518175272e+01 2.7625546772355811e+00 1.1288041399212276e+00 0 0 0
83 1 1 4.2189622407010872e-02 1.1323774827202040e+01 9.6195197637629093e+00 1.2482867058337412e+01 0 0 0
84 1 1 4.2791654219649027e-02 2.6708690530149518e+01 9.7591423251530820e+00 1.3103401418679931e+01 0 0 0
85 1 1 4.3018508126764103e-02 1.1221729454400830e+01 9.5164696330944452e+00 1.5822365615226093e+00 0 0 0
86 1 1 3.1646109505564658e-02 2.6372986299925675e+01 9.2043056144973008e+00 1.7428379895032107e+00 0 0 0
87 1 1 4.0579689018821481e-02 3.2392788772847476e+00 2.0328411421599082e+00 1.2684872284450725e+01 0 0 0
88 1 1 3.8260122525033885e-02 1.8816526577124460e+01 2.2893580507179276e+00 1.2767578790803423e+01 0 0 0
89 1 1 4.4479355270606272e-02 3.6800667858527447e+00 8.2255186333180816e+00 1.4199862726884329e+00 0 0 0
90 1 1 4.2865065027999520e-02 1.8589298770006163e+01 7.8848559495548045e+00 1.6509883987968768e+00 0 0 0
91 1 1 3.4052222918870834e-02 1.1354669999161247e+01 4.1777866871111176e+00 1.2424063318888145e+01 0 0 0
92 1 1 3.3636539769634155e-02 2.6389056920523025e+01 4.1711829645062473e+00 1.3195627605380592e+01 0 0 0
93 1 1 4.0322327687325701e-02 1.0592429141981514e+01 4.4064708602560643e+00 1.6675337219613802e+00 0 0 0
94 1 1 2.6992263962944074e-02 2.6089832726211238e+01 4.1840388747541954e+00 1.9694096431451018e+00 0 0 0
95 1 1 2.7906247423071361e-02 3.7554721271442371e+00 8.0464976378517221e+00 1.2941145484479698e+01 0 0 0
96 1 1 3.4889455221041255e-02 1.9142823186085277e+01 7.8724080932861735e+00 1.2873767107859889e+01 0 0 0
97 1 1 -5.6878814378523476e-02 3.1353938108412107e+00 1.0605257622495865e+00 3.5185735270193161e+00 0 1 0
98 1 1 -5.5632695108074684e-02 1.8526850238229652e+01 1.2227554208077440e+00 3.1438632553488279e+00 0 1 0
99 1 1 -6.5729122596709821e-02 1.1331801645246001e+01 1.1219015761782504e+01 1.4507753653654762e+01 0 -1 0
100 1 1 -5.6002188814278611e-02 2.6679028847395060e+01 5.0756189982400357e-01 1.4793339155008070e+01 0 0 0
101 1 1 -4.7337734377917662e-02 1.0907243660099132e+01 1.1456739216827643e+01 3.2913780909956767e+00 0 -1 0
102 1 1 -6.0217245323278018e-02 2.6356971957349028e+01 1.0958322561422801e+01 3.6181234098542259e+00 0 -1 0
103 1 1 -5.6106961345342599e-02 3.6248573413034522e+00 1.1574370895385652e+01 1.4553819800741406e+01 0 0 0
104 1 1 -6.4944138021428371e-02 1.8984114325238576e+01 1.1598792646536161e+01 1.4563503596178764e+01 0 0 0
105 1 1 -5.5130362898103913e-02 3.4833349558692621e+00 6.4028742113127679e+00 3.3730782455318602e+00 0 0 0
106 1 1 -5.6875367361567501e-02 1.8637102592407164e+01 6.2990502688299914e+00 3.6148036660600136e+00 0 0 0
107 1 1 -5.4393628897598953e-02 1.1691613329188812e+01 5.5287593687308405e+00 1.4556313896787927e+01 0 0 0
108 1 1 -6.2576946679404305e-02 2.6372482740898267e+01 5.9003065814940596e+00 1.5061136981839566e+01 0 0 0
109 1 1 -5.5333323667058135e-02 1.0684513479788333e+01 5.9586176136530726e+00 3.6353877996810828e+00 0 0 0
110 1 1 -6.1982382078004300e-02 2.6122075148937920e+01 5.6570733767965349e+00 3.9873618748563784e+00 0 0 0
111 1 1 -5.8071167883233958e-02 3.7940738631768314e+00 6.3453791698025270e+00 1.4763260134865426e+01 0 0 0
112 1 1 -5.9287681466933397e-02 1.8792782399142084e+01 6.2115839312955270e+00 1.4791316583675219e+01 0 0 0
113 1 1 1.7959460280414841e-02 7.8717442705765102e+00 2.5917689071633605e+00 1.7660862107100726e+01 0 0 0
114 1 1 3.4074394985110314e-02 2.2735851701523579e+01 2.0577189676855339e+00 1.7650680729184280e+01 0 0 0
115 1 1 2.6437985388340361e-02 6.9835083249574748e+00 1.0253066452593725e+01 6.3536380771994390e+00 0 0 0
116 1 1 2.4693338587050192e-02 2.1890754585098019e+01 1.0214406095197635e+01 6.2214883183318301e+00 0 0 0
117 1 1 1.6701399995143529e-02 1.6102862742958191e-01 9.6218104036286469e+00 1.7904253831016121e+01 0 0 0
118 1 1 2.1360464437819422e-02 1.5482453414941350e+01 1.0085186697176191e+01 1.7563625313482632e+01 0 0 0
119 1 1 2.2251864704536238e-02 1.4252434882399433e+01 2.3896336026055227e+00 6.1145264690710412e+00 0 0 0
120 1 1 2.7645835413786377e-02 2.9676431517993880e+01 1.6347069104571437e+00 6.6117568753413973e+00 0 0 0
121 1 1 1.3029449206304437e-02 7.4550377390004128e+00 8.2372367169946088e+00 1.7952541800045424e+01 0 0 0
122 1 1 2.2092423155082461e-02 2.2983647657125928e+01 7.9729475524239781e+00 1.7603802751593122e+01 0 0 0
123 1 1 1.8171041320888912e-02 6.5862867183922464e+00 4.3899688408833857e+00 6.4401183533898685e+00 0 0 0
124 1 1 1.8656299203249970e-02 2.2342330154539553e+01 4.2661419830899003e+00 6.4775200356042202e+00 0 0 0
125 1 1 2.3306438917677735e-02 8.3995021139155579e-02 4.3552757855869242e+00 1.7822548038013352e+01 0 0 0
126 1 1 1.9202384695889318e-02 1.5240091405999953e+01 4.2419581110484792e+00 1.7570115438536611e+01 0 0 0
127 1 1 2.2013781484218484e-02 1.4365362025364394e+01 8.0295062972954057e+00 6.1370111619020689e+00 0 0 0
128 1 1 2.8846171338185261e-02 2.9910910529838446e+01 7.3727932511884333e+00 6.6150256666294176e+00 0 0 0
129 1 1 3.6955647391073342e-02 9.2674180740673577e+00 2.7037611650764091e+00 1.7980510248165551e+01 0 0 0
130 1 1 3.7325863222213512e-02 2.4113084871160194e+01 2.3817706881836855e+00 1.7771870073765761e+01 0 0 0
131 1 1 2.8532038658986580e-02 5.5878012151433012e+00 9.9323452066503961e+00 6.4297304564343154e+00 0 0 0
132 1 1 2.8600217977017103e-02 2.0472960230189859e+01 9.8920006224742458e+00 6.3985181990403870e+00 0 0 0
133 1 1 3.2362727923858976e-02 1.5685327243776126e+00 9.5444528853204602e+00 1.8079468042881921e+01 0 0 0
134 1 1 3.0050418016391252e-02 1.6854188462327571e+01 9.6775712513277803e+00 1.7687069689748483e+01 0 0 0
135 1 1 3.7366540508432362e-02 1.2820637063960667e+01 2.6574280023153598e+00 6.3363422754607726e+00 0 0 0
136 1 1 3.6064952811671172e-02 2.8302852680301914e+01 2.0809849077853562e+00 6.8494977131284891e+00 0 0 0
137 1 1 3.2820879369399598e-02 8.8781101059728460e+00 8.4567024121195864e+00 1.8073316081180764e+01 0 0 0
138 1 1 2.3667090433830557e-02 2.4372444172551738e+01 8.3411405542772030e+00 1.7717116839482671e+01 0 0 0
139 1 1 3.2323951577049412e-02 5.1517779339265681e+00 4.1993261784617442e+00 6.5775239601003515e+00 0 0 0
140 1 1 2.0404069944505328e-02 2.0948795178817935e+01 3.9882963664836497e+00 6.6916054167874792e+00 0 0 0
141 1 1 3.1305422929780793e-02 1.4580866934173773e+00 4.1198108149479484e+00 1.7985962301942280e+01 0 0 0
142 1 1 2.7889591191335644e-02 1.6652480015119355e+01 3.9766660187647207e+00 1.7762168210492753e+01 0 0 0
143 1 1 3.0226977153480952e-02 1.2959647922910742e+01 8.2676623112716250e+00 6.3648871959826510e+00 0 0 0
144 1 1 3.1552761154540324e-02 2.8548075642535043e+01 7.8341218994492934e+00 6.8237370319371422e+00 0 0 0
145 1 1 2.2336587425705021e-02 9.7539771531761570e+00 2.0783369686889577e+00 1.9195324936031568e+01 0 0 0
146 1 1 2.2431511948178232e-02 2.4792439696958184e+01 1.7151617854124652e+00 1.8850058285031359e+01 0 0 0
147 1 1 1.8587590787603730e-02 4.8675605884693516e+00 1.0628639256991626e+01 7.4272409994059707e+00 0 0 0
148 1 1 1.4700083582333476e-02 1.9791282730247119e+01 1.0664301269402163e+01 7.3719665760323352e+00 0 0 0
149 1 1 2.6339250737872334e-02 2.1314758334799420e+00 1.0165919596193593e+01 1.9236467444431590e+01 0 0 0
150 1 1 2.1801268468060721e-02 1.7648597492438409e+01 1.0392321108816937e+01 1.8624925296295984e+01 0 0 0
151 1 1 1.7688912795983367e-02 1.2463770906781086e+01 1.9786319868258710e+00 7.5273700876910326e+00 0 0 0
152 1 1 2.3461170909279187e-02 2.7715925897302636e+01 1.6939489199510880e+00 8.0979267315239358e+00 0 0 0
153 1 1 2.2887721668005047e-02 9.5299295551246228e+00 7.5588357882610344e+00 1.8912111406419740e+01 0 0 0
154 1 1 1.4894810075726069e-02 2.5070205534398120e+01 7.5513317641190199e+00 1.8690933247269008e+01 0 0 0
155 1 1 1.8507001011341787e-02 4.6096881951474762e+00 5.0669445661166952e+00 7.5290753269602479e+00 0 0 0
156 1 1 1.5009539517849439e-02 2.0271166512807483e+01 4.8127624224005254e+00 7.6350947497456243e+00 0 0 0
157 1 1 1.0245172514442295e-02 2.1744531622712082e+00 4.8861113095049094e+00 1.8958296794709156e+01 0 0 0
158 1 1 1.5087582574479102e-02 1.7360232693946191e+01 4.6119811556823445e+00 1.8843909012990430e+01 0 0 0
159 1 1 1.5899887067555716e-02 1.2341271972388240e+01 7.5716428389159969e+00 7.4544191037644563e+00 0 0 0
160 1 1 2.0619134060515465e-02 2.7901409044506014e+01 7.3865737396338575e+00 8.0331796144589909e+00 0 0 0
161 1 1 4.2305498392253796e-02 8.9071711930239204e+00 1.1524804347602386e+00 1.9879497328430539e+01 0 0 0
162 1 1 3.8534073786138490e-02 2.4244558555426785e+01 6.3552333876279654e-01 1.9613598556322252e+01 0 0 0
163 1 1 4.3941901746276275e-02 5.3382527941213000e+00 5.2648322969779793e-01 8.1726328701306450e+00 0 1 0
164 1 1 4.0450490567816820e-02 2.0475538907416844e+01 1.1528141657934771e+01 8.2708038038028562e+00 0 0 0
165 1 1 4.4527543002891794e-02 1.2945781454496212e+00 1.0883691892698771e+01 2.0130264038803965e+01 0 0 0
166 1 1 4.6098871930308351e-02 1.7116719329987514e+01 1.1349219933646165e+01 1.9614422510452130e+01 0 0 0
167 1 1 4.5193646209295266e-02 1.3153120936633854e+01 9.2333156587596377e-01 8.2426740507415861e+00 0 0 0
168 1 1 3.9772261615330012e-02 2.8252722123312235e+01 5.8833138528508355e-01 8.8414645187067702e+00 0 0 0
169 1 1 3.5605741657477687e-02 8.9007376641840388e+00 6.5570950555976451e+00 1.9705401035386416e+01 0 0 0
170 1 1 3.6041999487282608e-02 2.4513109916607320e+01 6.4257121922995175e+00 1.9353066964449717e+01 0 0 0
171 1 1 4.3826604792426699e-02 5.4144504336859409e+00 5.8638410219082511e+00 8.3740559136597525e+00 0 0 0
172 1 1 4.0731431702465445e-02 2.0890533113806896e+01 5.7702566193416231e+00 8.5550685368217056e+00 0 0 0
173 1 1 3.3434467206627461e-02 1.5398897274392001e+00 5.8361050888391626e+00 1.9813561946776986e+01 0 0 0
174 1 1 3.5860616746217558e-02 1.6745201288073659e+01 5.7049996441099680e+00 1.9573310202984857e+01 0 0 0
175 1 1 4.4894144996252154e-02 1.3026029260772280e+01 6.5550641904159104e+00 8.2045540882568826e+00 0 0 0
176 1 1 3.9816526203434136e-02 2.8390778285225505e+01 6.2079855157282680e+00 8.6895280046534182e+00 0 0 0
177 1 1 8.1510827506750400e-03 7.6127138542418580e+00 9.3071468006297431e-01 1.9331083131533710e+01 0 0 0
178 1 1 1.1515380831749054e-02 2.3015810291823414e+01 1.1479733295156077e+01 1.9410057080584380e+01 0 -1 0
179 1 1 1.0716022876271290e-02 6.7449118974257596e+00 8.2519425129375534e-01 8.0043667247010575e+00 0 1 0
180 1 1 4.4740667416385202e-03 2.1727243744520006e+01 6.3867970632028559e-01 8.0399382275636011e+00 0 1 0
181 1 1 1.8449860059530025e-02 -5.3408175413938164e-02 1.1130793395223598e+01 1.9722763099505542e+01 0 0 0
182 1 1 1.3530792332465784e-02 1.5539974379096456e+01 5.2010598212729697e-01 1.9417954090506001e+01 0 1 0
183 1 1 1.0540779565472148e-02 1.4450325880663733e+01 5.9683996001174722e-01 7.7952815945066423e+00 0 0 0
184 1 1 1.5169133029968467e-02 2.9726285578208053e+01 1.1237890499335766e+01 8.4865945458664100e+00 0 -1 0
185 1 1 -2.5731432531842374e-03 7.4952337806166778e+00 6.4251276745488068e+00 1.9527599737987359e+01 0 0 0
186 1 1 1.6010165691475259e-02 2.3163716508142997e+01 6.0508115460283154e+00 1.9066324377295579e+01 0 0 0
187 1 1 1.0164992863646204e-02 6.8219679785847696e+00 6.0446467237645978e+00 8.1519859074832990e+00 0 0 0
188 1 1 1.9414104717845174e-02 2.2302993872537943e+01 5.9299956452789813e+00 8.3543750217068471e+00 0 0 0
189 1 1 6.0892794426308412e-03 1.5676401844324495e-01 6.1100286675994679e+00 1.9504726304647015e+01 0 0 0
190 1 1 1.3631389468874777e-02 1.5413874510029716e+01 5.9819580803878001e+00 1.9234676371668535e+01 0 0 0
191 1 1 1.7737110261576684e-02 1.4392886362436062e+01 6.3332678307058732e+00 7.9317464305497278e+00 0 0 0
192 1 1 1.5646642452654302e-02 2.9633431685756975e+01 5.6052640228588837e+00 8.2816809021830053e+00 0 0 0
193 1 1 2.5654683322015745e-02 6.9679714751827486e+00 1.6798473654881241e+00 1.8332580741134308e+01 0 0 0
194 1 1 3.0717199527643679e-02 2.2102742788586802e+01 9.6361378896710559e-01 1.8363772218188792e+01 0 0 0
195 1 1 3.2852540136886738e-02 7.7114790219716687e+00 1.1254022044373386e+01 7.0936932275940521e+00 0 0 0
196 1 1 3.4761729237375708e-02 2.2662622860264609e+01 1.1080158660558510e+01 7.0861272583230406e+00 0 0 0
197 1 1 3.2112829650607848e-02 1.4885794114288210e+01 1.0986949102771003e+01 1.8483293908179895e+01 0 0 0
198 1 1 3.6804266287838006e-02 3.0225750271084152e+01 1.0598459194131511e+01 1.8553299675738970e+01 0 0 0
199 1 1 3.4225168916232743e-02 3.0299687836460411e+01 6.0090222897992074e-01 7.3789887169009543e+00 -1 0 0
200 1 1 3.2432606561618262e-02 1.4999844336992249e+01 1.2772296410643520e+00 6.6524242580641237e+00 0 0 0
201 1 1 2.4752970612466105e-02 6.7038338336163195e+00 7.1913170902055672e+00 1.8634983965284157e+01 0 0 0
202 1 1 4.6394709986543721e-02 2.2348052523705260e+01 6.8205673798002895e+00 1.8193012308737238e+01 0 0 0
203 1 1 3.0323686202234110e-02 7.4415553240798946e+00 5.2989546429648726e+00 7.1209919497041216e+00 0 0 0
204 1 1 3.1854975300283785e-02 2.2975740154099697e+01 5.3050325165366266e+00 7.2352027784506312e+00 0 0 0
205 1 1 4.1419740195730123e-02 1.4615886996897665e+01 5.2662342837932226e+00 1.8285444201355070e+01 0 0 0
206 1 1 2.8946662128894910e-02 -6.3561984677743344e-01 5.3383053243193883e+00 1.8590563561672028e+01 1 0 0
207 1 1 3.8055507360687399e-02 3.0401348180336051e+01 6.1597755868503246e+00 7.2142423897339096e+00 -1 0 0
208 1 1 3.6063060770015358e-02 1.5054922394707532e+01 7.0123702825536141e+00 6.8561619800121090e+00 0 0 0
209 1 1 -6.8381303055733117e-02 7.2732269940642675e+00 3.3966637514876528e+00 1.6445642910679744e+01 0 0 0
210 1 1 -4.6974559167596797e-02 2.1757680215990327e+01 2.5588441382381042e+00 1.6550240784989221e+01 0 0 0
211 1 1 -6.1403733474229782e-02 7.7195592726960882e+00 9.4606566247038302e+00 5.2380239257536214e+00 0 0 0
212 1 1 -6.2583631054283106e-02 2.2503664125502613e+01 9.1979875259922395e+00 5.2590489417495307e+00 0 0 0
213 1 1 -5.6954731885730227e-02 1.4622929601442468e+01 9.3469317802592045e+00 1.6531695766555238e+01 0 0 0
214 1 1 -6.0896414434097421e-02 -5.5433542793378432e-01 8.7631496215733371e+00 1.6782455646261425e+01 1 0 0
215 1 1 -5.1501741455830613e-02 -3.7272110373614475e-01 2.1736911593187909e+00 5.4090350177156159e+00 0 0 0
216 1 1 -6.0526724636400270e-02 1.5102677806850007e+01 3.2198922163780757e+00 5.1557331134009798e+00 0 0 0
217 1 1 -7.0197767751634693e-02 6.6614290362362514e+00 9.1256421283795106e+00 1.6966014339728609e+01 0 0 0
218 1 1 -5.7099012309113198e-02 2.2059288894173338e+01 8.9000162636299223e+00 1.6731321387613740e+01 0 0 0
219 1 1 -6.4340943170353743e-02 7.4223285020826841e+00 3.5985931455904221e+00 5.3875315190426178e+00 0 0 0
220 1 1 -6.3099045559792968e-02 2.2936884489978844e+01 3.5379273624098717e+00 5.2525983768407754e+00 0 0 0
221 1 1 -7.3745377440935025e-02 1.4496013425963181e+01 3.5778498154752154e+00 1.6390782540542730e+01 0 0 0
222 1 1 -6.3056154944867007e-02 3.0221210239735949e+01 3.5786631605425434e+00 1.6712331809091317e+01 0 0 0
223 1 1 -5.7623271719359784e-02 -1.1457335717486694e-01 8.0886237436436339e+00 5.5675165885316318e+00 0 0 0
224 1 1 -6.6274602342812627e-02 1.5124441355938243e+01 8.8213924719803742e+00 5.0381547192897482e+00 0 0 0
225 1 2 2.2715780449534850e-01 6.2163937951820403e+00 1.1411742986211856e+01 3.0786049089430501e+00 0 0 0
226 1 2 2.3454090421242149e-01 2.1580529215212927e+01 1.1210500964902796e+01 2.5044052845100766e+00 0 0 0
227 1 2 2.2485020825673951e-01 8.4681958741183863e+00 9.1248266706550840e-01 1.3928462064048100e+01 0 0 0
228 1 2 2.3144388207270797e-01 2.3742054756953433e+01 9.2154485607227488e-01 1.4476020378272445e+01 0 0 0
229 1 2 2.2273601916005595e-01 1.3638493726976783e+01 1.0395367900960095e+00 2.8104568461777015e+00 0 0 0
230 1 2 2.3239494708641212e-01 2.9260950090154168e+01 1.1418277382152120e+01 3.2165011621519106e+00 0 -1 0
231 1 2 2.3111513812279080e-01 4.7226125540451136e-01 1.1440318262893729e+01 1.4630627003156880e+01 0 0 0
232 1 2 2.2714837416718234e-01 1.6080389216471939e+01 1.1059237521977131e+01 1.4009633115547583e+01 0 0 0
233 1 2 2.3352491230592434e-01 6.3133244623163733e+00 5.9681716284024908e+00 3.1092229430377571e+00 0 0 0
234 1 2 2.2961672016524504e-01 2.1437150443629516e+01 5.6711518862447736e+00 3.0085293166473859e+00 0 0 0
235 1 2 2.3308218207642409e-01 8.8828728986635994e+00 6.6378737537109922e+00 1.4136391845804836e+01 0 0 0
236 1 2 2.4166999434152936e-01 2.3489309430850518e+01 6.4855054788751181e+00 1.4461274246238826e+01 0 0 0
237 1 2 2.2670370038363738e-01 1.3414224328446535e+01 6.6192086200282274e+00 3.0380536265409832e+00 0 0 0
238 1 2 2.2109066460723700e-01 2.9069543612503679e+01 5.9547892476062101e+00 3.6658035717179409e+00 0 0 0
239 1 2 2.2588279449576043e-01 1.1234453209010351e+00 5.5809532244028839e+00 1.4339392984907507e+01 0 0 0
240 1 2 2.2770239205741316e-01 1.6110579680438306e+01 5.6600771904551870e+00 1.4073505567943721e+01 0 0 0
241 1 2 2.3573113415197749e-01 6.1082168221288331e+00 3.5648023048393944e+00 -8.0952366115057006e-01 0 0 0
242 1 2 2.3423674700149297e-01 2.1927928376567152e+01 3.7259904810421700e+00 -9.7798184977540392e-01 0 0 0
243 1 2 2.3910718093570568e-01 8.4945777853964994e+00 8.8181326775220832e+00 9.9859404200950141e+00 0 0 0
244 1 2 2.4537391181587401e-01 2.3855064682933374e+01 8.5639465496660918e+00 1.0741233721091058e+01 0 0 0
245 1 2 2.5008399696872685e-01 1.4287029900228312e+01 8.6650346858555238e+00 -6.7821877767821614e-01 0 0 0
246 1 2 2.4262100968759093e-01 2.9290456453892919e+01 8.0645000897778036e+00 -5.3020946637382305e-01 0 0 0
247 1 2 2.3862666615009298e-01 3.2288536209654572e-01 3.4851241462313212e+00 1.0626492521344066e+01 0 0 0
248 1 2 2.5192045825724418e-01 1.6053909928171311e+01 3.5582022452976427e+00 1.0313663524546385e+01 0 0 0
249 1 2 2.3169198882882969e-01 6.5875699182997041e+00 9.3839510575676641e+00 -7.7541031708079056e-01 0 0 0
250 1 2 2.5102527340673958e-01 2.1455077967732468e+01 9.1374172642480751e+00 -6.8151087274277489e-01 0 0 0
251 1 2 2.2916099788550909e-01 8.3439865333684580e+00 3.0999878187148422e+00 1.0359561110416365e+01 0 0 0
252 1 2 2.3806052157825214e-01 2.3649327380334125e+01 3.3799032374910927e+00 1.0606655387333843e+01 0 0 0
253 1 2 2.3971105484827709e-01 1.3353353492956934e+01 3.0170741922295492e+00 -6.1685650076318799e-01 0 0 0
254 1 2 2.4898944294096362e-01 2.9088402881730168e+01 2.6796190219282523e+00 -1.9463703292761236e-01 0 0 0
255 1 2 2.3786896275139421e-01 9.7015514598754138e-01 9.2027101977724115e+00 1.0606625822324411e+01 0 0 0
256 1 2 2.4062162358536446e-01 1.6479858824631179e+01 9.0089732124696233e+00 1.0307760311208883e+01 0 0 0
257 1 2 2.4020634387672696e-01 1.8889273343387547e+00 3.1253493283762279e+00 1.9263085417564882e+00 0 0 0
258 1 2 2.3334792325939824e-01 1.7347959809686881e+01 3.0757904994847545e+00 1.1421603183657423e+00 0 0 0
259 1 2 2.3635612550965437e-01 1.2557292250096790e+01 8.9366041446967124e+00 1.2961154472181107e+01 0 0 0
260 1 2 2.3335291933072533e-01 2.8112085551400767e+01 9.3924851106092859e+00 1.3402496952061423e+01 0 0 0
261 1 2 2.3401382789758782e-01 9.8240388351712404e+00 9.1554801462440523e+00 1.7155695219121094e+00 0 0 0
262 1 2 2.3394023757176366e-01 2.4893723586509505e+01 8.9586758689643453e+00 1.8370495914127725e+00 0 0 0
263 1 2 2.4526818905521552e-01 4.6623803544864026e+00 2.4395496095471900e+00 1.2837918638302474e+01 0 0 0
264 1 2 2.3027735357872134e-01 2.0232376775914787e+01 2.5477653919110219e+00 1.3032169503698535e+01 0 0 0
265 1 2 2.3714624580566046e-01 2.2838009509218802e+00 8.7098269375777448e+00 1.6410251516794885e+00 0 0 0
266 1 2 2.3236505122172513e-01 1.7139807492206092e+01 8.2544690381711572e+00 1.9467835922037349e+00 0 0 0
267 1 2 2.3369462020500958e-01 1.2839920972942140e+01 3.8718873218147292e+00 1.2496762386348259e+01 0 0 0
268 1 2 2.2619442176750160e-01 2.7829443547911787e+01 4.0587839401973165e+00 1.3282130941341801e+01 0 0 0
269 1 2 2.3391775520957206e-01 9.1536819375227996e+00 4.0655836584952070e+00 2.0270603438096626e+00 0 0 0
270 1 2 2.2480584965676759e-01 2.4631409848437386e+01 4.3616784613640469e+00 1.9292623339579351e+00 0 0 0
271 1 2 2.2629424476438201e-01 5.2028352670786875e+00 8.3865828737973978e+00 1.3133756212836833e+01 0 0 0
272 1 2 2.3433181828441418e-01 2.0598286921199790e+01 8.0940878431399632e+00 1.3172473045976432e+01 0 0 0
273 1 2 2.2524878763030515e-01 1.0137587412505908e+01 3.4387624500330420e+00 1.7035125023175702e+01 0 0 0
274 1 2 2.3605852944774594e-01 2.4737554051018826e+01 3.3445247016061468e+00 1.6835588821386793e+01 0 0 0
275 1 2 2.2689345429990318e-01 4.9149513012720032e+00 8.7879386689487582e+00 5.7137079515402709e+00 0 0 0
276 1 2 2.2098553816656680e-01 1.9853739499645918e+01 8.8268701804694985e+00 5.5934677288060488e+00 0 0 0
277 1 2 2.3369030055875750e-01 2.4848804793771899e+00 8.8143213554033508e+00 1.7102076549343295e+01 0 0 0
278 1 2 2.3290716565796993e-01 1.7401645903303383e+01 8.5390481470121138e+00 1.6836278836377531e+01 0 0 0
279 1 2 2.3308931043350689e-01 1.2112929114989905e+01 3.7718318043034400e+00 5.6503876973118805e+00 0 0 0