ITEM: TIMESTEP
0
ITEM: NUMBER OF ATOMS
576
ITEM: BOX BOUNDS xy xz yz pp pp pp
-3.8734541101000000e+00 1.7704000473000001e+01 0.0000000000000000e+00
0.0000000000000000e+00 2.5111999511699999e+01 -3.8734541101000000e+00
0.0000000000000000e+00 1.2813326682700000e+01 0.0000000000000000e+00
ITEM: ATOMS id type xs ys zs
1 1 0.222346 0.31671 0.86756
2 1 0.777655 0.683289 0.13244
3 1 0.027653 0.566709 0.632439
4 1 0.472345 0.933289 0.36756
5 1 0.222346 0.81671 0.86756
6 1 0.777656 0.183289 0.13244
7 1 0.0276528 0.0667094 0.632439
8 1 0.472345 0.43329 0.36756
9 1 0.722345 0.316711 0.86756
10 1 0.277655 0.683289 0.13244
11 1 0.527655 0.566711 0.63244
12 1 0.972344 0.933289 0.367559
13 1 0.722345 0.816711 0.86756
14 1 0.277656 0.183289 0.13244
15 1 0.527656 0.0667109 0.63244
16 1 0.972344 0.433289 0.36756
17 1 0.157115 0.316823 0.683877
18 1 0.842885 0.683177 0.316124
19 1 0.0928849 0.566823 0.816123
20 1 0.407115 0.933177 0.183877
21 1 0.157115 0.816823 0.683877
22 1 0.842885 0.183177 0.316124
23 1 0.0928849 0.0668226 0.816123
24 1 0.407115 0.433177 0.183876
25 1 0.657115 0.316823 0.683876
26 1 0.342885 0.683177 0.316123
27 1 0.592885 0.566823 0.816124
28 1 0.907115 0.933177 0.183877
29 1 0.657115 0.816823 0.683876
30 1 0.342885 0.183177 0.316124
31 1 0.592885 0.0668226 0.816123
32 1 0.907115 0.433177 0.183876
33 1 0.275082 0.256573 0.692858
34 1 0.724918 0.743427 0.307142
35 1 0.974918 0.506574 0.807141
36 1 0.525082 0.993427 0.192858
37 1 0.275082 0.756573 0.692858
38 1 0.724918 0.243427 0.307142
39 1 0.974918 0.00657366 0.807141
40 1 0.525082 0.493427 0.192858
41 1 0.775082 0.256573 0.692858
42 1 0.224918 0.743427 0.307142
43 1 0.474918 0.506573 0.807142
44 1 0.0250817 0.993427 0.192858
45 1 0.775082 0.756573 0.692858
46 1 0.224918 0.243427 0.307142
47 1 0.474918 0.00657338 0.807142
48 1 0.0250817 0.493427 0.192858
49 1 0.296568 0.279015 0.874434
50 1 0.703432 0.720985 0.125565
51 1 0.953433 0.529015 0.625568
52 1 0.546568 0.970985 0.374435
53 1 0.296568 0.779015 0.874434
54 1 0.703432 0.220985 0.125564
55 1 0.953433 0.0290154 0.625568
56 1 0.546568 0.470985 0.374435
57 1 0.796568 0.279015 0.874435
58 1 0.203432 0.720985 0.125565
59 1 0.453432 0.529015 0.625565
60 1 0.0465678 0.970985 0.374436
61 1 0.796568 0.779015 0.874435
62 1 0.203432 0.220985 0.125564
63 1 0.453432 0.0290149 0.625564
64 1 0.0465679 0.470985 0.374436
65 1 0.33305 0.309311 0.72146
66 1 0.66695 0.690689 0.278541
67 1 0.91695 0.559311 0.77854
68 1 0.58305 0.940689 0.221459
69 1 0.33305 0.809311 0.72146
70 1 0.66695 0.190689 0.278541
71 1 0.91695 0.0593106 0.77854
72 1 0.58305 0.440689 0.22146
73 1 0.83305 0.309311 0.721459
74 1 0.16695 0.690689 0.278541
75 1 0.41695 0.559311 0.778541
76 1 0.0830501 0.940689 0.221459
77 1 0.83305 0.809311 0.721459
78 1 0.16695 0.190689 0.278541
79 1 0.41695 0.0593108 0.778541
80 1 0.08305 0.440689 0.221459
81 1 0.216118 0.36772 0.713481
82 1 0.783882 0.63228 0.286519
83 1 0.0338815 0.61772 0.786519
84 1 0.466118 0.88228 0.213481
85 1 0.216118 0.86772 0.713481
86 1 0.783882 0.13228 0.286519
87 1 0.0338815 0.11772 0.786519
88 1 0.466118 0.38228 0.213481
89 1 0.716118 0.36772 0.713481
90 1 0.283882 0.63228 0.286519
91 1 0.533882 0.61772 0.786519
92 1 0.966118 0.88228 0.213481
93 1 0.716118 0.86772 0.713481
94 1 0.283882 0.13228 0.286519
95 1 0.533882 0.11772 0.786519
96 1 0.966118 0.38228 0.213481
97 2 0.208759 0.320743 0.943252
98 2 0.791241 0.679256 0.0567483
99 2 0.0412406 0.570743 0.556748
100 2 0.458759 0.929256 0.443252
101 2 0.208759 0.820744 0.943252
102 2 0.791241 0.179256 0.0567483
103 2 0.0412406 0.0707434 0.556748
104 2 0.458759 0.429256 0.443252
105 2 0.708759 0.320744 0.943252
106 2 0.291241 0.679256 0.0567483
107 2 0.541241 0.570744 0.556748
108 2 0.958759 0.929256 0.443252
109 2 0.708759 0.820744 0.943252
110 2 0.291241 0.179256 0.0567483
111 2 0.541241 0.0707436 0.556748
112 2 0.958759 0.429256 0.443252
113 2 0.0983126 0.32779 0.629905
114 2 0.901687 0.67221 0.370095
115 2 0.151687 0.57779 0.870095
116 2 0.348313 0.92221 0.129905
117 2 0.0983126 0.82779 0.629905
118 2 0.901687 0.17221 0.370095
119 2 0.151687 0.0777903 0.870095
120 2 0.348313 0.42221 0.129905
121 2 0.598313 0.32779 0.629905
122 2 0.401687 0.67221 0.370095
123 2 0.651687 0.57779 0.870095
124 2 0.848313 0.92221 0.129905
125 2 0.598313 0.82779 0.629905
126 2 0.401687 0.17221 0.370095
127 2 0.651687 0.0777904 0.870095
128 2 0.848313 0.42221 0.129905
129 2 0.2949 0.226899 0.643679
130 2 0.7051 0.773101 0.356321
131 2 0.9551 0.476899 0.856321
132 2 0.5449 0.0231009 0.143679
133 2 0.2949 0.726899 0.643679
134 2 0.7051 0.273101 0.356321
135 2 0.9551 0.976899 0.856321
136 2 0.5449 0.523101 0.143679
137 2 0.7949 0.226899 0.643679
138 2 0.2051 0.773101 0.356321
139 2 0.4551 0.476899 0.856321
140 2 0.0448998 0.0231009 0.143679
141 2 0.7949 0.726899 0.643679
142 2 0.2051 0.273101 0.356321
143 2 0.4551 0.976899 0.856321
144 2 0.0448998 0.523101 0.143679
145 2 0.320186 0.264302 0.956128
146 2 0.679814 0.735698 0.043871
147 2 0.929814 0.514303 0.543872
148 2 0.570186 0.985698 0.456129
149 2 0.320186 0.764302 0.956128
150 2 0.679814 0.235698 0.0438709
151 2 0.929814 0.0143026 0.543872
152 2 0.570186 0.485698 0.456129
153 2 0.820186 0.264302 0.956129
154 2 0.179814 0.735698 0.0438709
155 2 0.429814 0.514302 0.543871
156 2 0.0701863 0.985698 0.456129
157 2 0.820186 0.764302 0.956129
158 2 0.179814 0.235698 0.0438708
159 2 0.429814 0.0143023 0.543871
160 2 0.0701864 0.485698 0.456129
161 2 0.385052 0.30735 0.690375
162 2 0.614948 0.69265 0.309625
163 2 0.864948 0.55735 0.809625
164 2 0.635052 0.94265 0.190375
165 2 0.385052 0.80735 0.690375
166 2 0.614948 0.19265 0.309625
167 2 0.864948 0.0573502 0.809625
168 2 0.635052 0.44265 0.190375
169 2 0.885052 0.30735 0.690375
170 2 0.114948 0.69265 0.309625
171 2 0.364948 0.55735 0.809625
172 2 0.135052 0.94265 0.190375
173 2 0.885052 0.80735 0.690375
174 2 0.114948 0.19265 0.309625
175 2 0.364948 0.0573502 0.809625
176 2 0.135052 0.44265 0.190375
177 2 0.187846 0.405737 0.679353
178 2 0.812154 0.594263 0.320647
179 2 0.0621538 0.655737 0.820647
180 2 0.437846 0.844263 0.179353
181 2 0.187846 0.905737 0.679353
182 2 0.812154 0.0942628 0.320647
183 2 0.0621538 0.155737 0.820647
184 2 0.437846 0.344263 0.179353
185 2 0.687846 0.405737 0.679353
186 2 0.312154 0.594263 0.320647
187 2 0.562154 0.655737 0.820647
188 2 0.937846 0.844263 0.179353
189 2 0.687846 0.905737 0.679353
190 2 0.312154 0.0942629 0.320647
191 2 0.562154 0.155737 0.820647
192 2 0.937846 0.344263 0.179353
193 3 0.151591 0.295409 0.786815
194 3 0.848409 0.704591 0.213184
195 3 0.0984093 0.545408 0.713185
196 3 0.401591 0.954591 0.286815
197 3 0.151591 0.795409 0.786815
198 3 0.848409 0.204591 0.213184
199 3 0.0984094 0.0454084 0.713185
200 3 0.401591 0.454591 0.286816
201 3 0.651591 0.295409 0.786816
202 3 0.348409 0.704591 0.213184
203 3 0.598409 0.545409 0.713184
204 3 0.901591 0.954591 0.286816
205 3 0.651591 0.795409 0.786816
206 3 0.348409 0.204591 0.213184
207 3 0.598409 0.0454086 0.713184
208 3 0.901591 0.454591 0.286816
209 3 0.0723448 0.304535 0.80575
210 3 0.927655 0.695465 0.19425
211 3 0.177655 0.554535 0.69425
212 3 0.322345 0.945465 0.30575
213 3 0.0723447 0.804535 0.80575
214 3 0.927655 0.195465 0.19425
215 3 0.177655 0.0545352 0.69425
216 3 0.322345 0.445465 0.30575
217 3 0.572345 0.304535 0.80575
218 3 0.427655 0.695465 0.19425
219 3 0.677655 0.554535 0.69425
220 3 0.822345 0.945465 0.30575
221 3 0.572345 0.804535 0.80575
222 3 0.427655 0.195465 0.19425
223 3 0.677655 0.0545352 0.69425
224 3 0.822344 0.445465 0.30575
225 3 0.19576 0.275661 0.635245
226 3 0.80424 0.724339 0.364755
227 3 0.0542401 0.525661 0.864755
228 3 0.44576 0.974339 0.135245
229 3 0.19576 0.775661 0.635245
230 3 0.80424 0.224339 0.364755
231 3 0.0542401 0.025661 0.864755
232 3 0.44576 0.474339 0.135245
233 3 0.69576 0.275661 0.635245
234 3 0.30424 0.724339 0.364755
235 3 0.55424 0.525661 0.864755
236 3 0.94576 0.974339 0.135245
237 3 0.69576 0.775661 0.635245
238 3 0.30424 0.224339 0.364755
239 3 0.55424 0.0256611 0.864755
240 3 0.94576 0.474339 0.135245
241 3 0.151039 0.252026 0.531288
242 3 0.848961 0.747974 0.468712
243 3 0.0989608 0.502026 0.968712
244 3 0.401039 0.997974 0.0312881
245 3 0.151039 0.752026 0.531288
246 3 0.848961 0.247974 0.468712
247 3 0.0989608 0.00202597 0.968712
248 3 0.401039 0.497974 0.031288
249 3 0.651039 0.252026 0.531288
250 3 0.348961 0.747974 0.468712
251 3 0.598961 0.502026 0.968712
252 3 0.901039 0.997974 0.0312881
253 3 0.651039 0.752026 0.531288
254 3 0.348961 0.247974 0.468712
255 3 0.598961 0.00202597 0.968712
256 3 0.901039 0.497974 0.031288
257 3 0.282985 0.233463 0.797367
258 3 0.717014 0.766537 0.202634
259 3 0.967015 0.483464 0.702632
260 3 0.532985 0.0165373 0.297367
261 3 0.282985 0.733463 0.797367
262 3 0.717014 0.266537 0.202634
263 3 0.967015 0.983464 0.702632
264 3 0.532985 0.516537 0.297367
265 3 0.782985 0.233463 0.797367
266 3 0.217014 0.766537 0.202634
267 3 0.467014 0.483463 0.702633
268 3 0.0329856 0.0165376 0.297366
269 3 0.782986 0.733463 0.797366
270 3 0.217014 0.266538 0.202634
271 3 0.467014 0.983463 0.702634
272 3 0.0329857 0.516538 0.297366
273 3 0.219924 0.19463 0.804359
274 3 0.780076 0.80537 0.195641
275 3 0.0300754 0.44463 0.695641
276 3 0.469924 0.0553698 0.304359
277 3 0.219924 0.69463 0.804359
278 3 0.780076 0.30537 0.195641
279 3 0.0300754 0.94463 0.695641
280 3 0.469924 0.55537 0.304359
281 3 0.719924 0.19463 0.804359
282 3 0.280076 0.80537 0.195641
283 3 0.530076 0.44463 0.695641
284 3 0.969924 0.0553699 0.304359
285 3 0.719924 0.69463 0.804359
286 3 0.280076 0.30537 0.195641
287 3 0.530076 0.94463 0.695641
288 3 0.969924 0.55537 0.304359
289 3 0.359804 0.305832 0.836956
290 3 0.640196 0.694168 0.163045
291 3 0.890197 0.555832 0.663044
292 3 0.609804 0.944168 0.336955
293 3 0.359804 0.805832 0.836956
294 3 0.640196 0.194168 0.163045
295 3 0.890197 0.0558318 0.663044
296 3 0.609804 0.444168 0.336955
297 3 0.859804 0.305832 0.836955
298 3 0.140196 0.694168 0.163045
299 3 0.390196 0.555832 0.663045
300 3 0.109805 0.944168 0.336955
301 3 0.859804 0.805832 0.836955
302 3 0.140195 0.194168 0.163045
303 3 0.390196 0.0558318 0.663045
304 3 0.109805 0.444168 0.336955
305 3 0.397989 0.353493 0.899472
306 3 0.602011 0.646507 0.100528
307 3 0.852011 0.603493 0.600528
308 3 0.647989 0.896507 0.399472
309 3 0.397989 0.853493 0.899472
310 3 0.602011 0.146507 0.100528
311 3 0.852011 0.103493 0.600528
312 3 0.647989 0.396507 0.399472
313 3 0.897989 0.353493 0.899472
314 3 0.102011 0.646507 0.100528
315 3 0.352011 0.603493 0.600528
316 3 0.147989 0.896507 0.399472
317 3 0.897989 0.853493 0.899472
318 3 0.102011 0.146507 0.100528
319 3 0.352011 0.103493 0.600528
320 3 0.147989 0.396507 0.399473
321 3 0.283999 0.355291 0.672157
322 3 0.716 0.644709 0.327843
323 3 0.966 0.605291 0.827843
324 3 0.533999 0.894709 0.172157
325 3 0.283999 0.855291 0.672157
326 3 0.716 0.144709 0.327843
327 3 0.966 0.105291 0.827843
328 3 0.534 0.394709 0.172157
329 3 0.784 0.355291 0.672157
330 3 0.216 0.644709 0.327843
331 3 0.466 0.605291 0.827843
332 3 0.0339994 0.894709 0.172157
333 3 0.784 0.855291 0.672157
334 3 0.216 0.144709 0.327843
335 3 0.466 0.105291 0.827843
336 3 0.0339996 0.394709 0.172157
337 3 0.327539 0.402791 0.646045
338 3 0.672461 0.597209 0.353955
339 3 0.922461 0.652791 0.853955
340 3 0.577539 0.847209 0.146045
341 3 0.327539 0.902791 0.646045
342 3 0.672461 0.0972089 0.353955
343 3 0.922461 0.152791 0.853955
344 3 0.577539 0.347209 0.146045
345 3 0.827539 0.402791 0.646045
346 3 0.172461 0.597209 0.353955
347 3 0.422461 0.652791 0.853955
348 3 0.0775391 0.847209 0.146045
349 3 0.827539 0.902791 0.646045
350 3 0.172461 0.0972089 0.353955
351 3 0.422461 0.152791 0.853955
352 3 0.0775392 0.347209 0.146045
353 3 0.241 0.370298 0.831141
354 3 0.759 0.629702 0.168858
355 3 0.00899949 0.620298 0.668859
356 3 0.491 0.879702 0.331141
357 3 0.241 0.870298 0.831141
358 3 0.759 0.129702 0.168858
359 3 0.00899948 0.120298 0.668859
360 3 0.491 0.379702 0.331141
361 3 0.741 0.370298 0.831141
362 3 0.259 0.629702 0.168859
363 3 0.509 0.620298 0.668858
364 3 0.991 0.879702 0.331141
365 3 0.741 0.870298 0.831142
366 3 0.259 0.129702 0.168858
367 3 0.509 0.120298 0.668859
368 3 0.991 0.379702 0.331142
369 3 0.207034 0.417346 0.874127
370 3 0.792966 0.582653 0.125873
371 3 0.042966 0.667346 0.625873
372 3 0.457034 0.832654 0.374127
373 3 0.207034 0.917346 0.874127
374 3 0.792966 0.0826535 0.125873
375 3 0.0429659 0.167346 0.625873
376 3 0.457034 0.332654 0.374127
377 3 0.707034 0.417347 0.874127
378 3 0.292966 0.582653 0.125873
379 3 0.542966 0.667347 0.625873
380 3 0.957034 0.832653 0.374127
381 3 0.707034 0.917347 0.874127
382 3 0.292966 0.0826535 0.125873
383 3 0.542966 0.167347 0.625873
384 3 0.957034 0.332653 0.374127
385 4 0.0102254 0.308776 0.72711
386 4 0.989775 0.691224 0.27289
387 4 0.239775 0.558776 0.77289
388 4 0.260225 0.941224 0.22711
389 4 0.0102254 0.808776 0.72711
390 4 0.989775 0.191224 0.27289
391 4 0.239775 0.0587764 0.77289
392 4 0.260225 0.441224 0.22711
393 4 0.510225 0.308776 0.72711
394 4 0.489775 0.691224 0.27289
395 4 0.739775 0.558776 0.77289
396 4 0.760225 0.941224 0.22711
397 4 0.510225 0.808776 0.72711
398 4 0.489775 0.191224 0.27289
399 4 0.739775 0.0587764 0.77289
400 4 0.760225 0.441224 0.22711
401 4 0.0662421 0.298641 0.898748
402 4 0.933758 0.701359 0.101252
403 4 0.183758 0.548641 0.601252
404 4 0.316242 0.951359 0.398748
405 4 0.0662421 0.798641 0.898748
406 4 0.933758 0.201359 0.101252
407 4 0.183758 0.0486405 0.601252
408 4 0.316242 0.451359 0.398748
409 4 0.566242 0.298641 0.898748
410 4 0.433758 0.701359 0.101252
411 4 0.683758 0.548641 0.601252
412 4 0.816242 0.951359 0.398748
413 4 0.566242 0.798641 0.898748
414 4 0.433758 0.201359 0.101252
415 4 0.683758 0.0486406 0.601252
416 4 0.816242 0.451359 0.398748
417 4 0.183431 0.214262 0.492641
418 4 0.816569 0.785738 0.507359
419 4 0.0665686 0.464262 0.00735931
420 4 0.433431 0.0357383 0.992641
421 4 0.183431 0.714262 0.492641
422 4 0.816569 0.285738 0.507359
423 4 0.0665687 0.964262 0.00735932
424 4 0.433431 0.535738 0.992641
425 4 0.683431 0.214262 0.492641
426 4 0.316569 0.785738 0.507359
427 4 0.566569 0.464262 0.0073593
428 4 0.933431 0.0357383 0.992641
429 4 0.683431 0.714262 0.492641
430 4 0.316569 0.285738 0.507359
431 4 0.566569 0.964262 0.00735928
432 4 0.933431 0.535738 0.992641
433 4 0.088523 0.275634 0.474845
434 4 0.911477 0.724366 0.525155
435 4 0.161477 0.525634 0.0251551
436 4 0.338523 0.974366 0.974845
437 4 0.088523 0.775634 0.474845
438 4 0.911477 0.224366 0.525155
439 4 0.161477 0.0256343 0.0251551
440 4 0.338523 0.474366 0.974845
441 4 0.588523 0.275634 0.474845
442 4 0.411477 0.724366 0.525155
443 4 0.661477 0.525634 0.0251551
444 4 0.838523 0.974366 0.974845
445 4 0.588523 0.775634 0.474845
446 4 0.411477 0.224366 0.525155
447 4 0.661477 0.0256343 0.0251551
448 4 0.838523 0.474366 0.974845
449 4 0.190565 0.162377 0.72759
450 4 0.809436 0.837623 0.27241
451 4 0.0594351 0.412377 0.772409
452 4 0.440565 0.0876233 0.22759
453 4 0.190565 0.662377 0.72759
454 4 0.809436 0.337623 0.27241
455 4 0.059435 0.912377 0.772409
456 4 0.440565 0.587623 0.22759
457 4 0.690565 0.162377 0.72759
458 4 0.309436 0.837623 0.27241
459 4 0.559436 0.412377 0.77241
460 4 0.940564 0.0876234 0.22759
461 4 0.690564 0.662377 0.72759
462 4 0.309436 0.337623 0.27241
463 4 0.559436 0.912377 0.77241
464 4 0.940564 0.587623 0.22759
465 4 0.202932 0.189998 0.891624
466 4 0.797069 0.810002 0.108376
467 4 0.0470683 0.439998 0.608377
468 4 0.452931 0.0600024 0.391624
469 4 0.202932 0.689998 0.891624
470 4 0.797069 0.310002 0.108376
471 4 0.0470684 0.939998 0.608377
472 4 0.452932 0.560002 0.391624
473 4 0.702931 0.189998 0.891624
474 4 0.297069 0.810002 0.108376
475 4 0.547069 0.439998 0.608376
476 4 0.952931 0.0600025 0.391624
477 4 0.702931 0.689998 0.891624
478 4 0.297069 0.310002 0.108376
479 4 0.547069 0.939998 0.608376
480 4 0.952931 0.560002 0.391624
481 4 0.42957 0.389625 0.855873
482 4 0.57043 0.610375 0.144127
483 4 0.820431 0.639625 0.644127
484 4 0.67957 0.860375 0.355873
485 4 0.42957 0.889625 0.855873
486 4 0.57043 0.110375 0.144127
487 4 0.820431 0.139624 0.644127
488 4 0.67957 0.360375 0.355873
489 4 0.92957 0.389625 0.855873
490 4 0.0704301 0.610375 0.144127
491 4 0.32043 0.639625 0.644127
492 4 0.17957 0.860375 0.355873
493 4 0.92957 0.889625 0.855873
494 4 0.0704301 0.110375 0.144127
495 4 0.32043 0.139625 0.644127
496 4 0.17957 0.360375 0.355873
497 4 0.399551 0.356775 0.996398
498 4 0.600449 0.643225 0.00360138
499 4 0.850449 0.606775 0.503602
500 4 0.649551 0.893225 0.496398
501 4 0.399551 0.856775 0.996398
502 4 0.600449 0.143225 0.00360132
503 4 0.850449 0.106775 0.503602
504 4 0.649551 0.393225 0.496398
505 4 0.899551 0.356775 0.996399
506 4 0.100449 0.643225 0.00360135
507 4 0.350449 0.606775 0.503601
508 4 0.149551 0.893225 0.496399
509 4 0.899551 0.856775 0.996399
510 4 0.100449 0.143225 0.0036013
511 4 0.350449 0.106775 0.503601
512 4 0.149551 0.393225 0.496399
513 4 0.298865 0.449873 0.645931
514 4 0.701135 0.550127 0.354069
515 4 0.951135 0.699873 0.854069
516 4 0.548865 0.800127 0.145931
517 4 0.298865 0.949873 0.645931
518 4 0.701135 0.0501267 0.354069
519 4 0.951135 0.199873 0.854069
520 4 0.548865 0.300127 0.145931
521 4 0.798865 0.449873 0.645931
522 4 0.201135 0.550127 0.354069
523 4 0.451135 0.699873 0.854069
524 4 0.048865 0.800127 0.145931
525 4 0.798865 0.949873 0.645931
526 4 0.201135 0.0501267 0.354069
527 4 0.451135 0.199873 0.854069
528 4 0.048865 0.300127 0.145931
529 4 0.388093 0.394677 0.613084
530 4 0.611907 0.605323 0.386916
531 4 0.861907 0.644677 0.886916
532 4 0.638093 0.855323 0.113084
533 4 0.388093 0.894677 0.613084
534 4 0.611907 0.105323 0.386916
535 4 0.861907 0.144677 0.886916
536 4 0.638093 0.355323 0.113084
537 4 0.888093 0.394677 0.613084
538 4 0.111907 0.605323 0.386916
539 4 0.361907 0.644677 0.886916
540 4 0.138093 0.855323 0.113084
541 4 0.888093 0.894677 0.613084
542 4 0.111907 0.105323 0.386916
543 4 0.361907 0.144677 0.886916
544 4 0.138093 0.355323 0.113084
545 4 0.196663 0.461733 0.823741
546 4 0.803337 0.538267 0.176259
547 4 0.0533366 0.711733 0.676259
548 4 0.446663 0.788267 0.323741
549 4 0.196663 0.961733 0.823741
550 4 0.803337 0.0382671 0.176259
551 4 0.0533366 0.211733 0.676259
552 4 0.446663 0.288267 0.323741
553 4 0.696663 0.461733 0.823741
554 4 0.303337 0.538267 0.176259
555 4 0.553337 0.711733 0.676259
556 4 0.946663 0.788267 0.323741
557 4 0.696663 0.961733 0.823741
558 4 0.303337 0.0382671 0.176259
559 4 0.553337 0.211733 0.676259
560 4 0.946663 0.288267 0.323741
561 4 0.197924 0.414238 0.966009
562 4 0.802076 0.585762 0.033991
563 4 0.0520761 0.664238 0.533991
564 4 0.447924 0.835762 0.466009
565 4 0.197924 0.914238 0.966009
566 4 0.802076 0.0857624 0.033991
567 4 0.0520761 0.164238 0.533991
568 4 0.447924 0.335762 0.466009
569 4 0.697924 0.414238 0.966009
570 4 0.302076 0.585762 0.033991
571 4 0.552076 0.664238 0.533991
572 4 0.947924 0.835762 0.466009
573 4 0.697924 0.914238 0.966009
574 4 0.302076 0.0857624 0.033991
575 4 0.552076 0.164238 0.533991
576 4 0.947924 0.335762 0.466009
ITEM: TIMESTEP
1000
ITEM: NUMBER OF ATOMS
576
ITEM: BOX BOUNDS xy xz yz pp pp pp
-5.3820015954069413e+00 1.8808611270675279e+01 5.9455434819996711e-02
-1.4367897100897906e+00 2.6245379875572930e+01 -4.3368462325515447e+00
-4.2198500787813220e-01 1.3235311690578161e+01 -3.0340934621685639e-01
ITEM: ATOMS id type xs ys zs
1 1 0.265465 0.318973 0.880283
3 1 0.00760665 0.570141 0.655055
4 1 0.489398 0.916555 0.350175
5 1 0.242221 0.802334 0.860397
7 1 0.00455614 0.0668951 0.616195
8 1 0.475419 0.435681 0.356087
10 1 0.249493 0.675372 0.122712
11 1 0.502435 0.572451 0.629344
12 1 0.00698413 0.934438 0.370234
14 1 0.257429 0.188288 0.115687
15 1 0.496283 0.0718579 0.602078
16 1 0.0115138 0.430544 0.397105
17 1 0.186126 0.302421 0.730239
19 1 0.0753416 0.574205 0.825376
20 1 0.415981 0.920204 0.181495
21 1 0.184027 0.803346 0.6877
23 1 0.0911494 0.053453 0.777998
24 1 0.414635 0.445283 0.187463
26 1 0.32068 0.699117 0.280527
27 1 0.572737 0.551536 0.786916
29 1 0.656081 0.807163 0.726427
30 1 0.322302 0.202764 0.286413
31 1 0.580965 0.0523566 0.756559
33 1 0.293603 0.261724 0.71192
36 1 0.512241 0.978816 0.179077
37 1 0.291174 0.758258 0.693714
40 1 0.52069 0.496763 0.200228
42 1 0.210448 0.745189 0.274935
43 1 0.465023 0.50523 0.782078
44 1 0.0358109 0.975759 0.191758
46 1 0.212812 0.247881 0.275087
47 1 0.473774 0.0059404 0.767008
48 1 0.0320857 0.496883 0.237865
49 1 0.336964 0.293248 0.869851
52 1 0.55087 0.950801 0.352079
53 1 0.310514 0.772652 0.864958
56 1 0.540918 0.470843 0.3651
58 1 0.179123 0.705481 0.116829
59 1 0.430639 0.543941 0.624491
60 1 0.0713379 0.962817 0.36162
62 1 0.18673 0.220009 0.109515
63 1 0.431803 0.0413922 0.608818
64 1 0.0790399 0.457968 0.393056
65 1 0.331081 0.315387 0.710104
68 1 0.570066 0.932332 0.198108
69 1 0.341208 0.808168 0.73249
70 1 0.65523 0.175761 0.283341
72 1 0.568592 0.446436 0.218599
74 1 0.172829 0.696204 0.282279
75 1 0.426137 0.556857 0.784689
76 1 0.0820638 0.926854 0.210625
78 1 0.170741 0.196289 0.266292
79 1 0.434669 0.0562234 0.774508
80 1 0.0704995 0.446003 0.221517
81 1 0.221762 0.352832 0.724877
83 1 0.0304837 0.621359 0.796744
84 1 0.469836 0.874905 0.197966
85 1 0.227828 0.853584 0.723371
87 1 0.0501973 0.102145 0.782599
88 1 0.461206 0.396776 0.199329
90 1 0.281061 0.651437 0.286562
91 1 0.535806 0.601192 0.79233
94 1 0.282766 0.15358 0.269785
95 1 0.543783 0.10074 0.77217
97 2 0.271715 0.325756 0.960352
99 2 0.00953386 0.570085 0.576363
100 2 0.487068 0.912917 0.423784
101 2 0.233829 0.802893 0.933946
104 2 0.470977 0.42962 0.432076
106 2 0.250598 0.665554 0.0451427
107 2 0.504451 0.580357 0.549994
108 2 0.00452859 0.933884 0.447827
110 2 0.260413 0.185367 0.0399716
111 2 0.488815 0.0836562 0.527805
112 2 0.0132779 0.422975 0.471433
113 2 0.127215 0.301836 0.694821
115 2 0.132125 0.580681 0.867688
116 2 0.362622 0.909441 0.143575
117 2 0.127954 0.81128 0.638344
119 2 0.150268 0.0614602 0.815369
120 2 0.360302 0.43898 0.138811
121 2 0.63207 0.313659 0.663108
122 2 0.377417 0.69466 0.317763
123 2 0.631185 0.554543 0.828267
125 2 0.600455 0.808826 0.680069
126 2 0.37912 0.199803 0.327939
127 2 0.641175 0.0521359 0.794352
129 2 0.313431 0.236071 0.663506
132 2 0.520059 0.0079479 0.127489
133 2 0.314442 0.7335 0.652188
136 2 0.534998 0.52598 0.157585
138 2 0.191884 0.776957 0.311811
139 2 0.443013 0.475549 0.820441
140 2 0.0542974 0.999626 0.139786
142 2 0.191048 0.275964 0.317044
143 2 0.456067 0.976933 0.813005
144 2 0.0402575 0.526421 0.192846
145 2 0.377621 0.289202 0.943009
146 2 0.661448 0.711501 0.0598443
148 2 0.575048 0.96815 0.424784
149 2 0.334585 0.758249 0.936077
150 2 0.654639 0.223926 0.0707539
152 2 0.567194 0.480669 0.44253
154 2 0.147259 0.711252 0.0395856
155 2 0.395583 0.540394 0.551326
156 2 0.104459 0.978719 0.432377
158 2 0.155962 0.230459 0.0366652
159 2 0.39674 0.0304381 0.531634
160 2 0.116924 0.459966 0.471236
161 2 0.373915 0.315015 0.675379
162 2 0.653413 0.690342 0.337905
164 2 0.609904 0.935892 0.162449
165 2 0.391557 0.812069 0.70903
166 2 0.610488 0.172594 0.313204
168 2 0.615596 0.450531 0.194118
170 2 0.132648 0.698344 0.323256
171 2 0.386223 0.556266 0.829145
172 2 0.123054 0.922756 0.168563
174 2 0.134584 0.196961 0.306822
175 2 0.393154 0.05461 0.814161
176 2 0.105798 0.452091 0.174127
177 2 0.182218 0.382082 0.686687
179 2 0.0625211 0.656327 0.830652
180 2 0.444681 0.843627 0.154569
181 2 0.197979 0.885868 0.689626
183 2 0.0871772 0.134406 0.819643
184 2 0.432439 0.364287 0.151932
186 2 0.318642 0.624543 0.336006
187 2 0.574161 0.627513 0.839036
189 2 0.655364 0.88245 0.679576
190 2 0.318011 0.124651 0.314125
191 2 0.583051 0.12823 0.811088
193 3 0.199361 0.288485 0.838206
195 3 0.0706133 0.546699 0.725504
196 3 0.415843 0.937757 0.282098
197 3 0.180688 0.781627 0.781425
199 3 0.0769756 0.042089 0.669784
200 3 0.409934 0.45833 0.290343
202 3 0.31323 0.706584 0.170099
203 3 0.568159 0.543075 0.680415
205 3 0.665408 0.795655 0.835172
206 3 0.319722 0.218071 0.175467
207 3 0.564044 0.0439699 0.64313
209 3 0.134426 0.301422 0.869853
211 3 0.140942 0.549456 0.700567
212 3 0.35016 0.926416 0.309876
213 3 0.109971 0.790773 0.79879
215 3 0.139303 0.0526365 0.631139
216 3 0.341564 0.448316 0.312499
217 3 0.624934 0.298787 0.839801
218 3 0.379584 0.6952 0.139066
219 3 0.635069 0.563972 0.659169
221 3 0.598802 0.809309 0.861567
222 3 0.38902 0.207514 0.15604
223 3 0.627152 0.0623245 0.612102
225 3 0.213539 0.261466 0.676561
227 3 0.0455637 0.543518 0.889146
228 3 0.442516 0.95949 0.125773
229 3 0.221102 0.77268 0.62673
231 3 0.0659651 0.0134351 0.832507
232 3 0.450145 0.479926 0.141114
234 3 0.290775 0.743608 0.320831
235 3 0.543061 0.507941 0.82982
238 3 0.287209 0.24031 0.330565
239 3 0.555879 0.0105062 0.805801
241 3 0.181948 0.269021 0.566808
243 3 0.096977 0.500999 0.931333
244 3 0.389926 0.995915 0.0666406
245 3 0.177205 0.728861 0.570785
247 3 0.0949786 0.0225689 0.941434
248 3 0.401071 0.514216 0.0655614
250 3 0.309133 0.73659 0.430555
251 3 0.560205 0.511117 0.940216
253 3 0.663542 0.772044 0.567847
254 3 0.325598 0.257103 0.436062
255 3 0.581725 0.0173897 0.91581
257 3 0.329464 0.24465 0.8121
260 3 0.525096 0.998187 0.27907
261 3 0.295858 0.732556 0.786349
264 3 0.525289 0.515327 0.300752
266 3 0.188602 0.75474 0.165946
267 3 0.438908 0.493219 0.67071
268 3 0.055149 0.00416838 0.288225
270 3 0.202764 0.266714 0.172511
271 3 0.444943 0.989851 0.663531
272 3 0.0670792 0.510028 0.344076
273 3 0.286487 0.2056 0.840405
276 3 0.468904 0.0291544 0.303186
277 3 0.239724 0.695957 0.796679
279 3 0.00837218 0.958033 0.654917
280 3 0.466627 0.547695 0.307727
282 3 0.242525 0.788974 0.142905
283 3 0.491654 0.460956 0.64198
284 3 0.00263533 0.0420813 0.303992
286 3 0.260617 0.302354 0.16897
287 3 0.499729 0.959548 0.634298
288 3 0.0211644 0.543677 0.383033
289 3 0.374286 0.323815 0.814111
290 3 0.656696 0.674682 0.19022
292 3 0.60606 0.933581 0.306346
293 3 0.369179 0.804051 0.842623
294 3 0.626607 0.181822 0.176202
296 3 0.600227 0.447141 0.330542
298 3 0.138398 0.678616 0.174542
299 3 0.389249 0.570402 0.681167
300 3 0.12083 0.931346 0.320272
302 3 0.136878 0.193807 0.155207
303 3 0.394105 0.0692437 0.668213
304 3 0.111787 0.434021 0.322693
305 3 0.38931 0.375398 0.852793
306 3 0.601344 0.642186 0.120779
308 3 0.646848 0.889307 0.355936
309 3 0.392359 0.851736 0.901272
310 3 0.599365 0.137945 0.108687
312 3 0.627348 0.399032 0.376672
314 3 0.0988663 0.633948 0.121169
315 3 0.338859 0.605739 0.615902
316 3 0.14663 0.884324 0.373652
318 3 0.114132 0.143578 0.110181
319 3 0.3631 0.11362 0.612368
320 3 0.166971 0.396745 0.369274
321 3 0.271897 0.348269 0.661494
324 3 0.527257 0.887901 0.154268
325 3 0.298364 0.851259 0.692267
327 3 0.00132019 0.0993507 0.841594
328 3 0.52517 0.404822 0.165754
330 3 0.223229 0.659976 0.340174
331 3 0.479381 0.594672 0.842438
332 3 0.0311698 0.88308 0.173826
334 3 0.220411 0.157552 0.310574
335 3 0.489413 0.0927887 0.8274
336 3 0.0163867 0.408396 0.167261
337 3 0.296071 0.399722 0.640802
340 3 0.566902 0.845196 0.129322
341 3 0.333342 0.902002 0.710063
342 3 0.655313 0.0808923 0.295556
344 3 0.566679 0.357519 0.166979
346 3 0.186519 0.613385 0.355922
347 3 0.444149 0.643532 0.850676
348 3 0.068556 0.834289 0.181431
350 3 0.184624 0.109951 0.319513
351 3 0.456039 0.141482 0.84264
352 3 0.0543391 0.36391 0.142237
353 3 0.258835 0.366844 0.832616
355 3 0.00454419 0.623092 0.685331
356 3 0.498157 0.865147 0.30587
357 3 0.248902 0.856433 0.833337
359 3 0.0108037 0.115407 0.672235
360 3 0.484706 0.387195 0.308009
362 3 0.249548 0.631908 0.184636
363 3 0.503466 0.620398 0.688502
364 3 0.00584625 0.881479 0.336703
366 3 0.259453 0.139011 0.158783
367 3 0.506727 0.117785 0.668814
368 3 0.00480213 0.383015 0.333928
369 3 0.217457 0.404626 0.870824
371 3 0.0436217 0.658244 0.640694
372 3 0.460637 0.822427 0.3359
373 3 0.201044 0.892527 0.867945
375 3 0.0495175 0.15563 0.637161
376 3 0.453431 0.342266 0.341347
378 3 0.286304 0.586522 0.154987
379 3 0.545579 0.66012 0.657555
382 3 0.315762 0.106182 0.134552
383 3 0.544984 0.159633 0.640074
385 4 0.0764918 0.309505 0.800969
387 4 0.200293 0.551286 0.769753
388 4 0.289907 0.937457 0.2478
389 4 0.0568726 0.803698 0.726155
391 4 0.198951 0.0640974 0.698741
392 4 0.284442 0.439599 0.240768
393 4 0.565064 0.301401 0.772766
394 4 0.439403 0.690944 0.206333
397 4 0.539142 0.808734 0.79244
398 4 0.443068 0.189693 0.219877
401 4 0.135119 0.293011 0.958913
403 4 0.137874 0.547557 0.610169
404 4 0.35576 0.914281 0.398394
405 4 0.101256 0.780424 0.881798
407 4 0.131245 0.0540757 0.540123
408 4 0.341628 0.449593 0.402602
409 4 0.627378 0.289684 0.929281
410 4 0.372373 0.680283 0.0502224
411 4 0.632272 0.569342 0.569173
413 4 0.602815 0.821328 0.951045
414 4 0.395587 0.218769 0.0694364
415 4 0.626299 0.0555431 0.522026
417 4 0.190212 0.235832 0.505863
419 4 0.0732563 0.460233 0.949362
420 4 0.411073 0.0305028 0.021579
421 4 0.208029 0.689656 0.555285
423 4 0.0594172 0.0133655 0.00202108
424 4 0.430294 0.552272 0.0434901
426 4 0.281249 0.764535 0.484246
427 4 0.523785 0.487038 0.984011
430 4 0.302709 0.295129 0.471319
431 4 0.542198 0.00100833 0.965142
433 4 0.156155 0.311289 0.537204
435 4 0.16426 0.510274 0.961159
436 4 0.324277 0.983405 0.0354718
437 4 0.109774 0.732183 0.53223
439 4 0.157081 0.0437627 0.975563
440 4 0.344846 0.495196 0.00657581
441 4 0.617248 0.243474 0.538302
442 4 0.362071 0.707909 0.470995
443 4 0.607895 0.54255 0.989552
445 4 0.627978 0.811488 0.531823
446 4 0.382448 0.234434 0.482885
447 4 0.639639 0.0414958 0.953518
449 4 0.254322 0.173473 0.773913
451 4 0.013128 0.430288 0.78258
452 4 0.450223 0.0718397 0.26581
453 4 0.18592 0.684826 0.72336
455 4 0.0464809 0.925992 0.713228
456 4 0.431352 0.571465 0.23304
458 4 0.276946 0.820114 0.2085
459 4 0.52316 0.426338 0.69978
462 4 0.282045 0.335712 0.23637
463 4 0.549062 0.935308 0.697728
465 4 0.261466 0.214975 0.91345
467 4 0.019667 0.467346 0.644942
468 4 0.446951 0.0145534 0.375157