LAMMPS data file via write_data, version 15 Apr 2020, timestep = 80000

576 atoms
4 atom types

1.9640972611496466e-01 1.7507590746885292e+01 xlo xhi
-3.3524097954573193e+00 2.8464409307158014e+01 ylo yhi
-2.5952926953128674e-02 1.2839279609653286e+01 zlo zhi
3.0018785677662185e+00 -6.7049682852811774e+00 6.2122306384473169e-01 xy xz yz

Masses

1 12.0107
2 1.00794
3 14.0067
4 15.9994

Atoms # full

284 1 3 4.4705048473705145e-01 -7.2916190849776530e-01 -2.8697934031863070e+00 2.8064331698858220e+00 1 0 0
494 1 4 -2.9385059477687953e-01 6.8692615647224642e-01 4.5785347619833310e+00 1.8341060727261551e+00 0 0 0
19 1 1 9.6826296005710286e-02 -1.7180344105691594e+00 1.5720155295429009e+01 1.0173188424492064e+01 0 0 0
195 1 3 -2.6213849742066564e-01 -1.2223598985769275e+00 1.4999460982774480e+01 8.9409185350383602e+00 0 0 0
227 1 3 -2.4331078763579997e-01 -2.9774293998128250e+00 1.5018400171549583e+01 1.0760845647538584e+01 0 0 0
48 1 1 9.7347351219930336e-02 1.2791476236860975e+00 1.2204372214162802e+01 3.0188454766962414e+00 0 0 0
179 1 2 2.4470513517971973e-01 -1.5305685411705765e+00 1.7815795156928125e+01 1.0212872238810057e+01 0 0 0
12 1 1 7.4793591068716206e-02 1.0685366809525805e+00 2.6896551834889813e+01 4.6926785930030990e+00 1 0 0
64 1 1 8.1271853864823218e-02 6.2306533022967336e-01 1.1698419812063040e+01 5.2887772746124373e+00 0 0 0
76 1 1 9.3604022213495106e-02 1.9039095508023782e+00 2.5202929348900501e+01 2.3172713116416297e+00 0 0 0
80 1 1 9.9829004183630901e-02 1.6515854326597008e+00 1.0716454911412997e+01 3.3205090396285404e+00 0 0 0
87 1 1 7.2408405199122200e-02 -3.7761758857101309e+00 9.0621071231592332e-01 1.0213768916069746e+01 0 0 0
172 1 2 2.3669507576165255e-01 2.5498806444423594e+00 2.4524331725775678e+01 1.7246613988791086e+00 0 0 0
272 1 3 -2.1591017135469662e-01 1.1273639836697718e+00 1.2846456021333744e+01 4.4013633227373390e+00 0 0 0
314 1 3 4.7390537731421800e-01 4.0503817913390794e+00 1.8131806860370453e+01 4.1750351808669722e-01 0 0 0
318 1 3 4.1431079363415496e-01 9.7179505878950201e-01 3.3101681890013159e+00 1.6268934127511809e+00 0 0 0
419 1 4 -2.4061714953174734e-01 -3.5312664503619002e+00 1.3248937804370382e+01 1.2263979366979527e+01 0 0 0
490 1 4 -2.4550256340928403e-01 2.9823315673213360e+00 1.7444431902103496e+01 1.0288597420417780e-01 0 0 0
551 1 4 -2.6109619339325746e-01 -2.8937934633925684e+00 2.0642188085405637e+00 7.5272443933991573e+00 0 0 0
509 1 4 -2.8068616161522436e-01 -2.7533982555328009e+00 2.3868242622981313e+01 1.2662909347741060e+01 1 0 0
108 1 2 2.3991900603031568e-01 1.2214473863190416e+00 2.7441846483076439e+01 5.7015543358430234e+00 1 0 0
117 1 2 2.4561729025622903e-01 -5.6770579879414029e-02 2.3297701841382960e+01 7.7170092290948471e+00 0 0 0
160 1 2 2.4889019605048668e-01 7.8134209107607244e-01 1.1945688565655267e+01 6.3070535170753095e+00 0 0 0
199 1 3 -2.1499654594701298e-01 -3.4421543608778817e+00 -1.4885273035551347e+00 9.8862278544917217e+00 0 0 0
268 1 3 -2.2723373464499708e-01 2.6573484477969869e+00 2.7493652988165564e+01 2.7405169607237108e+00 0 -1 0
352 1 3 4.3043359482561921e-01 1.0222538835248278e+00 8.2137421924872456e+00 2.7842862784895113e+00 0 0 0
389 1 4 -3.3904025884627709e-01 -1.6768187597619884e+00 2.2757877982232621e+01 9.2601229961184934e+00 0 0 0
433 1 4 -3.0283757432573938e-01 -6.0059433216226754e-01 6.0653294919821850e+00 6.3101975388928224e+00 0 0 0
476 1 4 -2.2450013407356231e-01 -8.7870238210011098e-01 -2.2962169364003122e+00 3.9580152861965860e+00 1 0 0
144 1 2 2.6157260852081426e-01 2.1614779779737852e+00 1.2786001866454249e+01 2.5543870561590238e+00 0 0 0
547 1 4 -2.5463100074546541e-01 2.3399674256216674e-01 1.8293362238951499e+01 9.0512028688438519e+00 0 0 0
183 1 2 2.6948318713133668e-01 -2.9170839639315851e+00 1.6077297900677774e+00 1.0149424595148485e+01 0 0 0
421 1 4 -2.3490829508617694e-01 9.2926247150743269e-02 2.1029343401534486e+01 6.5768873352122998e+00 0 0 0
371 1 3 4.0186453231462138e-01 -4.3878983950901596e-01 1.7850182579867948e+01 8.0193803483696726e+00 0 0 0
243 1 3 4.6438358716256672e-01 -2.6201303549692279e+00 1.3724837435379936e+01 1.1503906494982818e+01 0 0 0
298 1 3 -2.1262080005563888e-01 4.0164469530066773e+00 1.8950978246267194e+01 1.7058774269454799e+00 0 0 0
304 1 3 -2.2509932617677253e-01 1.7440808275638138e+00 1.0612239784031509e+01 4.8041755497624976e+00 0 0 0
538 1 4 -2.4022557615821746e-01 3.2322237467152277e+00 1.5178468412214528e+01 2.3799178547392712e+00 0 0 0
113 1 2 2.6209584161795674e-01 -2.2539869344385641e+00 6.2560481774786432e+00 8.1410298834577048e+00 0 0 0
115 1 2 2.4850710903304205e-01 -9.5691887790450103e-01 1.5744474779195702e+01 1.0948376094771188e+01 0 0 0
455 1 4 -3.0377909381466695e-01 -1.9268919829475033e+00 2.8178745236982412e+01 1.2394872269579352e+01 0 0 0
549 1 4 -2.6567372380431975e-01 -8.1734242579668415e-01 2.4999224611821155e+01 1.0498431345585747e+01 0 0 0
170 1 2 2.8156625245476907e-01 2.6811805821854251e+00 1.8019022155771580e+01 3.1679850813872004e+00 0 0 0
176 1 2 2.4653888547040936e-01 2.6683057262711460e+00 1.0534259578785457e+01 2.8640456951635289e+00 0 0 0
492 1 4 -3.0445575324357543e-01 3.1890785788834033e+00 2.2993635024479282e+01 4.3133598928472825e+00 0 0 0
544 1 4 -2.3532575195754094e-01 1.9936590332214901e+00 7.6393241297464307e+00 2.1809576235888088e+00 0 0 0
17 1 1 1.0569776158029943e-01 -1.3899093513901271e+00 6.0674035322421549e+00 8.8869604345222335e+00 0 0 0
23 1 1 8.7311116240995870e-02 -3.3057470705135010e+00 -3.6486477687614016e-01 1.0947824796377144e+01 0 0 0
60 1 1 8.7900444270929023e-02 2.4488964500460750e+00 2.6680791451413448e+01 4.0429537819862231e+00 0 0 0
174 1 2 2.5965570839685082e-01 1.0989205357572280e+00 3.7463970057501328e+00 4.0936211348684930e+00 0 0 0
181 1 2 2.5612320158611507e-01 6.2366984280764193e-01 2.5159520276762557e+01 8.6569843560823188e+00 0 0 0
193 1 3 -2.3309216169980321e-01 -1.9976668540713600e+00 5.8135880072457589e+00 1.0275633788792991e+01 0 0 0
209 1 3 4.7213456069513371e-01 -3.4069435669459249e+00 6.3431040081216068e+00 1.0420628775294581e+01 0 0 0
213 1 3 4.6817918231722611e-01 -8.2592573905546640e-01 2.2027415743499773e+01 9.9009243415008363e+00 0 0 0
215 1 3 4.4581277125535446e-01 -2.1320955099877743e+00 -1.7512449560638070e+00 9.1908171010479300e+00 0 0 0
231 1 3 -1.8961418357490739e-01 -4.0735285300156026e+00 -7.2114859757194472e-01 1.2251847060325236e+01 0 0 0
241 1 3 4.6966168420456322e-01 -2.9905356814899253e-01 4.9444385300277762e+00 6.8720895380927827e+00 0 0 0
300 1 3 -2.2087624971421016e-01 2.7905229200376018e+00 2.5280129096923865e+01 3.5734764824502174e+00 0 0 0
316 1 3 4.6181562005495863e-01 2.7415077665519521e+00 2.4149596044011425e+01 4.6204945820314096e+00 0 0 0
385 1 4 -3.0631340005104990e-01 -4.0093660813425149e+00 6.1289494327030773e+00 1.1548837655713481e+01 0 0 0
405 1 4 -3.1226926442001673e-01 -1.1134951379907001e+00 2.1304476067377330e+01 1.0917383226305184e+01 0 0 0
407 1 4 -2.2440942197228433e-01 -2.1699648709827284e+00 -2.6958146377625516e+00 8.2758503455449919e+00 0 0 0
435 1 4 -2.7747475240474334e-01 -1.3909572106514947e+00 1.3307501705212985e+01 1.1543357227369956e+01 0 0 -1
542 1 4 -1.6842614663724076e-01 1.0496577263507811e-01 1.3466982911669803e+00 5.0072707505645608e+00 0 0 0
545 1 4 -2.5786717104014450e-01 -2.4932938678808325e+00 8.8922959110736137e+00 9.9968753353098556e+00 0 0 0
21 1 1 8.1428543032910555e-02 9.0179710749279884e-01 2.3077202114765729e+01 8.1843796274640361e+00 0 0 0
156 1 2 2.5347221649711366e-01 3.2542677854199829e+00 2.7047274880117023e+01 4.6874176928204712e+00 0 0 0
245 1 3 4.6746292330967454e-01 1.3702348560465212e+00 2.1215875214434586e+01 6.6056168961575681e+00 0 0 0
247 1 3 4.3397933503754177e-01 2.7957718776428204e+00 -2.5299587343426744e-01 4.4843934051500611e-01 0 0 1
302 1 3 -1.9610560768924881e-01 2.0737335655535825e+00 2.7235622829930106e+00 2.4421579515789409e+00 0 0 0
177 1 2 2.4379584974068277e-01 -8.9821045082698481e-01 8.1890312790269153e+00 8.3408084869413237e+00 0 0 0
423 1 4 -2.5292131728922229e-01 2.0586404003824073e+00 -2.9555253512642476e-01 1.5217852275156412e+00 0 1 1
83 1 1 7.2617384975207894e-02 -2.1504169545967287e+00 1.7127462107945043e+01 9.6541677149249914e+00 0 0 0
437 1 4 -3.0747757480598248e-01 2.2229601277229127e+00 2.0355616151596866e+01 6.1571651150408817e+00 0 0 0
563 1 4 -1.7134044820059291e-01 7.1560528273342694e-02 1.8047442319730028e+01 6.8098157109013489e+00 0 0 0
510 1 4 -2.6351737506213824e-01 4.3853509075334784e-01 2.7040573176754492e+00 6.0531700016893553e-01 0 0 0
528 1 4 -2.5535369581551137e-01 2.7747703526345147e-02 7.4854843871406622e+00 3.2559535898724872e+00 0 0 0
336 1 3 -2.1623368727317985e-01 7.7161212230183973e-01 9.7231378957952650e+00 2.6031413032443864e+00 0 0 0
386 1 4 -4.0002644910300167e-01 8.9784091449770398e-01 1.8422373385443890e+01 2.8727190394958360e+00 1 0 0
288 1 3 5.1786808739900014e-01 2.0681786491013376e-01 1.4032336352006848e+01 4.4878412017063996e+00 1 0 0
480 1 4 -4.0003009681514173e-01 -5.8196004777788657e-01 1.4113993865408229e+01 5.5011117075175013e+00 1 0 0
99 1 2 2.7058620968234470e-01 -1.2582044262535099e+00 1.5482888223572768e+01 6.8442977232830220e+00 0 0 0
375 1 3 3.9262299605061429e-01 -3.2128869239965585e+00 8.0654672923863657e-01 7.7412560702576689e+00 0 0 0
572 1 4 -3.3387610698915221e-01 -3.6218940137841571e-01 2.6166821856183905e+01 7.1333182262431984e+00 1 0 0
355 1 3 -1.9783183805371893e-01 -1.8029230701462744e+00 1.7265229208490616e+01 8.1973504793683389e+00 0 0 0
279 1 3 4.6991881186167589e-01 -2.0554913501326109e+00 2.8725042828420804e+01 1.1205539014923929e+01 0 0 0
471 1 4 -2.3575971610503821e-01 -1.4701631928181502e+00 2.8116988492048741e+01 1.0259656107178273e+01 0 0 0
317 1 3 4.2137861840350438e-01 -3.6883659806647375e+00 2.3046414653367847e+01 1.2253262289799419e+01 1 0 0
493 1 4 -2.9208472945371222e-01 -3.5925914883322454e+00 2.1793059072415421e+01 1.2514385028790006e+01 1 0 0
39 1 1 7.3279056611322016e-02 -5.5213674602286789e+00 -7.4774063333441987e-01 1.1932366504150355e+01 1 0 0
135 1 2 2.6119948945594146e-01 7.1542463702912618e-01 -1.4941506378410780e+00 4.7399635184995279e-02 1 1 1
567 1 4 -2.7446382868114910e-01 -2.8089630301582149e+00 -1.3704778317666699e-01 6.9314762640355942e+00 0 0 0
467 1 4 -3.4652164330764573e-01 -2.1144716677095401e+00 1.2680210732240866e+01 7.4885397607359101e+00 0 0 0
16 1 1 6.5394465037658472e-02 -8.1920987969827319e-01 1.1293644518336604e+01 5.0396557067249956e+00 1 0 0
112 1 2 2.6103240460723398e-01 -1.3337236747250001e+00 1.1077135797289500e+01 5.9811648551656305e+00 1 0 0
368 1 3 -2.2977184740655679e-01 -8.7637976659547623e-01 9.8467320297511129e+00 4.4615583033303361e+00 1 0 0
3 1 1 8.7441983582640020e-02 -1.7767879339712662e+00 1.5725504732120392e+01 7.7849316320401050e+00 0 0 0
506 1 4 -3.1801781924011946e-01 -1.5704409805602326e+00 1.8670181617758118e+01 1.2625174775111642e+01 0 0 -1
154 1 2 2.5885970595030239e-01 4.9327182682567008e+00 2.0821616886602882e+01 1.2520988943061013e+00 0 0 0
211 1 3 4.3602439114135738e-01 2.8894090554248830e-01 1.4858497513792059e+01 8.8943739037047429e+00 0 0 0
58 1 1 9.7843504332701337e-02 5.0686786718111829e+00 2.0016680458879215e+01 2.0044886447465515e+00 0 0 0
74 1 1 9.7962943831933713e-02 3.7312013426269970e+00 1.8256575937255789e+01 3.0188608640300805e+00 0 0 0
320 1 3 4.7113129621605271e-01 1.5077759381209184e+00 9.2998762115854223e+00 5.4965580576376079e+00 0 0 0
387 1 4 -3.1159660543175660e-01 9.5951020679510801e-01 1.5643604167886604e+01 8.1480830016953121e+00 0 0 0
403 1 4 -2.8743760057759882e-01 8.1227432518555087e-01 1.4025304531310205e+01 9.7588646305569213e+00 0 0 0
508 1 4 -3.6178250879571816e-01 2.7512264888301798e+00 2.4478203098364229e+01 5.8870059806688673e+00 0 0 0
512 1 4 -3.6927927662700977e-01 6.7031316449138911e-01 9.2570979338181214e+00 6.5027850786835284e+00 0 0 0
522 1 4 -2.7836454689449164e-01 5.0236032783617564e+00 1.5857668212619252e+01 1.1602660240384279e+00 0 0 0
46 1 1 9.3108150906017553e-02 3.0012002979629986e+00 4.5998328309772942e+00 3.8759556305532330e+00 0 0 0
62 1 1 8.5425522347162039e-02 3.4544805651862980e+00 3.2191771095950301e+00 1.9659010962428300e+00 0 0 0
78 1 1 6.3273646573643288e-02 2.0501113348143782e+00 3.3732010753204698e+00 3.8735331091701477e+00 0 0 0
85 1 1 7.7932608067821957e-02 1.4089401672292832e+00 2.4392476703162586e+01 8.8411753071002508e+00 0 0 0
119 1 2 2.5773243900118581e-01 -2.2235616409554444e+00 -1.7378386280514357e-01 1.1130090382639263e+01 0 0 0
142 1 2 2.5804637645378781e-01 2.4038598211829147e+00 5.5212632530801962e+00 4.0935301255793535e+00 0 0 0
158 1 2 2.4931804289002105e-01 3.4049735897596252e+00 3.2376116033697473e+00 8.8295267373627362e-01 0 0 0
225 1 3 -2.2113647209100593e-01 -6.3118990670800645e-01 4.8732883372181757e+00 8.3578408875574510e+00 0 0 0
229 1 3 -1.9589351626009641e-01 1.8515906776311444e+00 2.2578317162275841e+01 7.1515513404511406e+00 0 0 0
266 1 3 -2.1468319525546198e-01 4.5228083037752578e+00 2.0642622219204995e+01 3.2915043143539799e+00 0 0 0
270 1 3 -2.2161361174872221e-01 3.5436896147852570e+00 4.6643881421503455e+00 2.4183822896535774e+00 0 0 0
346 1 3 4.4574392357427228e-01 4.3065380337831449e+00 1.5907585972814509e+01 2.2221462327865313e+00 0 0 0
417 1 4 -3.2797474342476673e-01 4.4444699350065608e-01 4.0437535309281296e+00 6.3162169116765936e+00 0 0 0
439 1 4 -3.6909325265932313e-01 3.6485199884087005e+00 7.0959359158392576e-01 2.8213729659752662e-01 0 0 0
449 1 4 -3.5716617029767750e-01 -1.2835217189709125e+00 2.5243426975910754e+00 9.9757217528565434e+00 0 0 0
496 1 4 -2.6353149892934019e-01 2.2261177372885230e+00 8.2867396201906161e+00 5.1474400996143288e+00 0 0 0
197 1 3 -2.2448334861366176e-01 6.0843099203631557e-01 2.2072312028000059e+01 9.3704794153746427e+00 0 0 0
273 1 3 5.4006852499627622e-01 -9.2674609331611002e-01 3.3611583975322503e+00 1.0915313667979660e+01 0 0 0
350 1 3 4.2793604082314018e-01 1.3842722339823537e+00 1.1976385698231589e+00 4.8852337425801879e+00 0 0 0
81 1 1 8.3120978919691904e-02 -4.9254382717599654e-01 7.3689642313008346e+00 8.9975592087810128e+00 0 0 0
357 1 3 -2.3329673968849701e-01 1.4487121106740810e+00 2.4131122703080433e+01 1.0370432111999801e+01 0 0 0
369 1 3 4.2245445943682125e-01 -1.4934640122379568e+00 8.8479847311025939e+00 1.0803805934302726e+01 0 0 0
373 1 3 4.4494103220937942e-01 3.5681799388653346e-01 2.4932880972324465e+01 1.1077116566225886e+01 0 0 0
561 1 4 -2.8247173741044795e-01 -1.3860477897329142e+00 9.6224032748126653e+00 1.1843537066527617e+01 0 0 0
391 1 4 -3.2431966933397549e-01 -9.9564911872515705e-01 -1.2403821444512797e+00 9.5605159519978002e+00 0 0 0
565 1 4 -2.8579521090833765e-01 5.7902638861736122e-01 2.5630457908217419e+01 1.2130462239107239e+01 0 0 0
388 1 4 -2.7232920828451473e-01 2.7244853465260421e+00 -3.1117951274524365e+00 3.0085500500340574e+00 0 1 0
465 1 4 -4.0123692996279170e-01 -1.6735304456228270e+00 3.5948743379665489e+00 1.1925601083061803e+01 0 0 0
1 1 1 7.4757772695994068e-02 -9.7621802114914491e-01 6.4950501503454738e+00 1.1240272154726750e+01 0 0 0
97 1 2 2.3805222673947077e-01 -1.5233225038742448e+00 6.7565583044330726e+00 1.2167879830559219e+01 0 0 0
321 1 3 -2.0893054840759573e-01 8.7803822148138533e-01 7.0209146947625509e+00 8.5067841004536646e+00 0 0 0
353 1 3 -1.9839635231393593e-01 -4.9543009136262306e-01 7.7545888447549132e+00 1.0534770478084702e+01 0 0 0
42 1 1 9.2048296274103825e-02 4.1250369721770319e+00 1.9374867842200345e+01 4.0930687242379902e+00 0 0 0
138 1 2 2.7850147058078595e-01 3.1756853757095596e+00 1.9724781225815732e+01 4.5476455161894815e+00 0 0 0
116 1 2 2.5216446571785611e-01 6.4897132959561921e+00 2.7204900794153499e+01 1.4142020744050230e+00 0 0 0
334 1 3 -1.8850922162175013e-01 2.3472857519475063e+00 2.3850554243597095e+00 4.9684196233268487e+00 0 0 0
526 1 4 -2.2123805306469230e-01 1.8771841056353726e+00 6.7557398400088342e-02 4.5191413875324837e+00 0 0 0
330 1 3 -2.4664450135709806e-01 4.5621672674976832e+00 1.7042425124748270e+01 3.2332262321449257e+00 0 0 0
327 1 3 -2.5230238529282872e-01 -4.9613427850207890e+00 1.5934498595428561e+00 1.1046815680262100e+01 1 0 0
451 1 4 -2.0814172482717397e-01 -2.9997725998115161e+00 1.2193294414771239e+01 9.4946666450428161e+00 0 0 0
364 1 3 -2.5271798528948924e-01 1.7647786168203258e+01 2.5622544135549671e+01 4.8782844045341394e+00 0 0 0
401 1 4 -3.5476775106485736e-01 1.3208179201888015e+01 6.6831796513827193e+00 9.3726489813069058e+00 -1 0 0
464 1 4 -3.3099486069845829e-01 1.7252174038241925e+01 1.4778093576914593e+01 3.4402752914936596e+00 0 0 0
491 1 4 -3.8138829702377774e-01 2.5634349612417844e+00 1.3523111729324995e+01 6.6903419601026490e+00 0 0 0
517 1 4 -2.8204122871973469e-01 2.6207519790598655e+00 2.6722727711103580e+01 9.7951074492336936e+00 0 0 0
392 1 4 -3.4334097497590821e-01 4.7741288445002024e+00 1.2070262356682456e+01 2.1794382025427010e+00 0 0 0
507 1 4 -2.8396489860813856e-01 3.8019837068888869e+00 1.4663402630476497e+01 5.1932765146799280e+00 0 0 0
325 1 3 -2.0271746742145436e-01 2.7857405344011603e+00 2.4831227631823268e+01 8.2582064898274616e+00 0 0 0
341 1 3 4.3884365002167852e-01 3.2830933087342773e+00 2.6157539657037667e+01 8.8337160463682594e+00 0 0 0
495 1 4 -2.2899823923474455e-01 7.5717007693908389e-01 4.6631504344800456e-01 7.7958072821130857e+00 0 0 0
460 1 4 -2.8581696029088971e-01 1.6664696653638675e+01 -2.1304384268865260e+00 1.7147937853259003e+00 0 0 0
140 1 2 2.6072971795116673e-01 1.9628068435321261e+01 2.6744209849655608e+01 7.5175571092909166e-01 -1 -1 0
44 1 1 8.0627946857785085e-02 1.9143794201598379e+01 2.6643109926557244e+01 1.7493363948110712e+00 -1 0 0
432 1 4 -2.3113671913783837e-01 1.8511245211500199e+01 1.0892047896833308e+01 5.0273425482058909e-01 0 0 0
106 1 2 2.5509793896477245e-01 7.1694454470891618e+00 2.0100153845024977e+01 1.3348237657155249e+00 0 0 0
10 1 1 6.9535562228045661e-02 6.5362792668151606e+00 1.9524664328956433e+01 2.0561007840374197e+00 0 0 0
362 1 3 -1.7730077475209099e-01 6.5032674904910355e+00 1.8041279085471480e+01 1.7782664976384903e+00 0 0 0
570 1 4 -1.9878078025889556e-01 8.2429422130788197e+00 1.7572124242442573e+01 1.8758323988903494e-01 0 0 0
33 1 1 1.1182799064364390e-01 5.6971532042546524e-01 4.5876025555453523e+00 9.2543191047807269e+00 0 0 0
129 1 2 2.4993609319095678e-01 1.0720602780498574e+00 3.6948111795289931e+00 8.8189759795289611e+00 0 0 0
436 1 4 -3.1539668963898160e-01 -2.0599542662500099e+00 -2.2103715487378928e+00 1.2836424496135074e+01 0 1 0
378 1 3 4.0645965672548201e-01 7.9275723784437098e+00 1.7533416637987273e+01 1.4320721946434942e+00 0 0 0
286 1 3 5.0954949553665496e-01 4.9051368092677823e+00 5.2785145880034321e+00 2.2918607834379667e+00 0 0 0
462 1 4 -2.4539841884634989e-01 5.4485307321901146e+00 5.7924012413400447e+00 3.3704195794633947e+00 0 0 0
282 1 3 5.1407775550167867e-01 5.4154342851721502e+00 2.1609217769960285e+01 4.0749818046618360e+00 0 0 0
458 1 4 -3.2685754036150499e-01 5.8384709893991404e+00 2.2651670237458298e+01 3.4342162592369161e+00 0 0 0
5 1 1 8.3998582041808725e-02 1.5342770702155253e+00 2.2586750312822943e+01 1.0422482474379212e+01 0 0 0
430 1 4 -2.8627344297567403e-01 2.8308237618496568e+00 5.8073383452440996e+00 6.5610052761645319e+00 0 0 0
478 1 4 -4.1735654668102662e-01 5.6343026400062497e+00 4.9334373134967375e+00 1.3080596639556701e+00 0 0 0
539 1 4 -1.6959895928156368e-01 2.4149904374922038e+00 1.6740935012461271e+01 1.0512183962023254e+01 0 0 0
14 1 1 9.4073974232991395e-02 4.5780857405484285e+00 2.2914758793555059e+00 2.5113349356600452e+00 0 0 0
37 1 1 9.1302404355132843e-02 3.2054186411066565e+00 2.2371111539620117e+01 7.8481286907691263e+00 0 0 0
90 1 1 6.8841837927753224e-02 6.0321710080373032e+00 1.7468262279606996e+01 3.1170570719295014e+00 0 0 0
101 1 2 2.2191578953540136e-01 1.2527245988277098e+00 2.2266668305586975e+01 1.1474081177717117e+01 0 0 0
234 1 3 -1.9979994492770159e-01 5.1861044917607435e+00 1.8963528407206336e+01 5.0580826778476489e+00 0 0 0
238 1 3 -1.8345881893268129e-01 4.1015447555380922e+00 4.4978841322464165e+00 4.9358885778133494e+00 0 0 0
186 1 2 2.2732027852725833e-01 6.4636019402530813e+00 1.6521706916372320e+01 3.3148189791390088e+00 0 0 0
254 1 3 4.3651002687640911e-01 3.5086193025522650e+00 4.7553910848373562e+00 6.3213195738597134e+00 0 0 0
171 1 2 2.6356729974460275e-01 2.8841551854557155e+00 1.4005600009531001e+01 8.8368729684398346e+00 0 0 0
212 1 3 4.7509644309372084e-01 6.6261312661492013e+00 2.8216970336583962e+01 3.7710435732538627e+00 0 0 0
216 1 3 4.4132446492098404e-01 5.6237700469038092e+00 1.2018228857115362e+01 3.1434969387899443e+00 0 0 0
244 1 3 4.9220600374896528e-01 8.6461828232749252e+00 2.8191027879222311e+01 3.3741773079387520e-02 0 0 0
299 1 3 -1.7412323310403685e-01 4.3449093568470500e+00 1.4887821517977681e+01 7.5522573563699185e+00 0 0 0
315 1 3 4.8212078170875722e-01 3.4619091511309352e+00 1.4398521751750327e+01 6.3968993442086948e+00 0 0 0
319 1 3 4.6467302185405274e-01 2.0004486021816872e+00 1.5699755823299810e-01 7.9549010028715159e+00 0 0 0
337 1 3 4.5406830150291350e-01 1.7983055052942385e+00 8.2472514107391355e+00 8.4479316946148408e+00 0 0 0
408 1 4 -3.1795408014767412e-01 5.2598560237391840e+00 1.2259234143009156e+01 4.3679525098192826e+00 0 0 0
533 1 4 -3.0594417120539363e-01 4.3071696060066227e+00 2.6748349443669394e+01 8.2688294879141040e+00 0 0 0
120 1 2 2.6489955055894537e-01 6.3979782251034232e+00 1.1550736740933681e+01 7.7652156667948735e-01 0 0 0
184 1 2 2.4487565118562715e-01 6.5578229277779725e+00 9.1838852072032822e+00 8.6501298361250079e-01 0 0 0
552 1 4 -2.9175137145782942e-01 5.0351424286062194e+00 8.4587875424120451e+00 2.2959311248228751e+00 0 0 0
347 1 3 4.2789789738845296e-01 3.4171820271119371e+00 1.6386015369646554e+01 9.7510068099715781e+00 0 0 0
404 1 4 -3.2154412503891039e-01 6.6388175677075614e+00 2.8501422332332375e+01 5.0480202920040851e+00 0 0 0
442 1 4 -2.4689497966522089e-01 3.4917166571467715e+00 1.7754415705879339e+01 6.2279362708935393e+00 0 0 0
75 1 1 6.6448306475082333e-02 3.9336444648085633e+00 1.4177994401865330e+01 8.8422545485238189e+00 0 0 0
529 1 4 -2.7891690238090527e-01 1.4714255533663341e+00 9.2740009801376431e+00 9.1633376886787516e+00 0 0 0
568 1 4 -2.4743792454411762e-01 5.6315467407251756e+00 8.6288969933280875e+00 4.5234376835010037e+00 0 0 0
376 1 3 4.1706174128522810e-01 5.8850267805661920e+00 8.7442063891356110e+00 3.2534152003920491e+00 0 0 0
523 1 4 -2.1190728031315864e-01 4.0820526599882800e+00 1.7223514501925553e+01 9.0352747896992582e+00 0 0 0
94 1 1 8.2247587104687436e-02 3.8010329117199686e+00 1.8835664132669407e+00 4.8004552469305439e+00 0 0 0
110 1 2 2.5404350861258274e-01 5.1168749559765763e+00 1.8146883086466641e+00 1.6748111852309593e+00 0 0 0
133 1 2 2.4794307166680060e-01 4.0098982262418783e+00 2.2173081783929319e+01 7.1133901799030683e+00 0 0 0
257 1 3 -2.6746564253771382e-01 2.7558733181174411e-01 4.2256415763107649e+00 1.0686207749696035e+01 0 0 0
366 1 3 -1.9446859900591784e-01 4.0660983739924133e+00 1.1759059373110885e+00 3.4864131654222095e+00 0 0 0
49 1 1 1.1950821441472767e-01 2.3291527097374498e-01 5.5474358280212588e+00 1.1463051226595347e+01 0 0 0
65 1 1 7.8809949013831357e-02 1.4626017471099892e+00 5.8640853223000917e+00 9.3495149663642430e+00 0 0 0
69 1 1 9.1205346990264446e-02 3.7036576546327113e+00 2.3713565493082111e+01 8.5022866071822456e+00 0 0 0
250 1 3 4.8181298132960843e-01 4.7254870677263590e+00 1.7761181947444065e+01 5.8925240397621037e+00 0 0 0
24 1 1 7.5932562696833766e-02 7.2865826703494019e+00 1.1186519804396864e+01 1.4230652316613726e+00 0 0 0
88 1 1 9.7007463373313507e-02 7.4399899801466338e+00 9.6076461321995712e+00 1.4374703639521897e+00 0 0 0
548 1 4 -3.9303666345079469e-01 5.2415872428476824e+00 2.6033555910934538e+01 3.9153582549807355e+00 0 0 0
511 1 4 -4.0243913737155906e-01 2.9121247810693216e+00 8.4790426346667314e-01 7.3758830755143370e+00 0 0 0
303 1 3 -2.3006587192672170e-01 2.2966059065781392e+00 -1.2632950017724385e+00 8.4128189318827040e+00 0 0 0
474 1 4 -3.0421648059104023e-01 5.3402787756604146e+00 2.1565823265883314e+01 5.3588136636171946e+00 0 0 0
26 1 1 8.5427656769495125e-02 6.4119962642503419e+00 1.8489491816831642e+01 4.2628234092413759e+00 0 0 0
30 1 1 8.8881822854385312e-02 4.7405287122800139e+00 3.1444777585564916e+00 4.8124493778678730e+00 0 0 0
202 1 3 -2.4342001939544777e-01 7.0748155864765270e+00 1.9609893087188524e+01 3.5280278279669606e+00 0 0 0
261 1 3 -1.9863526587717800e-01 3.1896015654984291e+00 2.1288840759608561e+01 8.9145006932830988e+00 0 0 0
420 1 4 -3.1068749651236166e-01 3.0396296412879300e+00 2.8999489120915008e+01 1.2203132392290083e+01 0 -1 -1
20 1 1 9.9808907526559576e-02 7.4212181350179574e+00 2.6833088624274797e+01 1.8842236858566266e+00 0 0 0
228 1 3 -2.2808922061069276e-01 8.5492086934949363e+00 2.6884479282262490e+01 8.2134028346701060e-01 0 0 0
196 1 3 -2.3093588079245025e-01 7.8185963462334716e+00 2.7540856683892901e+01 3.1342198728799806e+00 0 0 0
360 1 3 -2.2751003685876722e-01 7.2608862752124068e+00 9.2342211264884568e+00 2.9175950011885639e+00 0 0 0
206 1 3 -2.4749451623412910e-01 5.4421557489640815e+00 3.0571376797103396e+00 3.4311275342319143e+00 0 0 0
446 1 4 -3.1784317375621640e-01 3.5150156950795051e+00 3.7606252693818565e+00 7.1938291097511531e+00 0 0 0
161 1 2 2.6909580483462642e-01 2.5230428950725434e+00 5.7586085989813043e+00 8.9537411815568717e+00 0 0 0
440 1 4 -2.6651871007829675e-01 7.1778131345105676e+00 1.3805092869614697e+01 8.7319533947030581e-01 0 0 1
53 1 1 9.0836243284489998e-02 3.0293665835695149e+00 2.2116859160319020e+01 1.0149438401392651e+01 0 0 0
165 1 2 2.4177936818508947e-01 4.6416727203245474e+00 2.3928700573948770e+01 8.0055897134230989e+00 0 0 0
543 1 4 -2.3798632342424014e-01 5.8336515326396388e-01 4.8790922512522261e-01 1.1486628749856667e+01 0 0 0
175 1 2 2.6873459081812573e-01 1.1024384669249958e+00 -1.9530900017770330e+00 1.0005251763542478e+01 0 0 0
139 1 2 2.4360322397863177e-01 4.1759566584307199e+00 1.1989096459905547e+01 8.8804047177585161e+00 0 0 0
331 1 3 -1.9934974323591256e-01 4.1248083504203175e+00 1.5073713522222025e+01 1.0051528573803701e+01 0 0 0
248 1 3 4.1787898721192385e-01 8.2787343407110878e+00 1.3268883332531370e+01 5.0449237723144624e-01 0 0 0
426 1 4 -4.1129093217435531e-01 5.5106211693575160e+00 1.6773404711557738e+01 6.0788252968687777e+00 0 0 0
155 1 2 2.3550429447213705e-01 6.1206579476360208e+00 1.4447106259671056e+01 6.3232315947718609e+00 0 0 0
200 1 3 -2.2437672193340552e-01 7.0932204533083709e+00 1.1733107121473248e+01 2.8351093035305697e+00 0 0 0
232 1 3 -2.0808952566706171e-01 8.5305632464634549e+00 1.1767944656064017e+01 6.8277045494400035e-01 0 0 0
513 1 4 -2.2151517844243906e-01 3.0125595877354359e+00 8.0919013201115551e+00 8.0185031802904447e+00 0 0 0
145 1 2 2.7235412059912145e-01 3.8394613936260669e-01 5.2622281007148199e+00 1.2549811943001032e+01 0 0 0
190 1 2 2.3779925631550425e-01 4.0637231917759991e+00 1.1969805201798147e+00 5.6739463971255484e+00 0 0 0
180 1 2 2.3397327119122355e-01 6.3103926866892239e+00 2.4931224177484289e+01 1.9597395263634441e+00 0 0 0
289 1 3 -1.9334356684107401e-01 1.5096756508194717e+00 6.1794794552753594e+00 1.0817655616344471e+01 0 0 0
410 1 4 -2.6286320301669674e-01 9.2608316667907982e+00 1.9896812444476527e+01 2.5830128721273833e+00 0 0 0
382 1 3 4.2030833823627300e-01 5.0337364771627673e+00 1.7957578563100096e-02 3.6573233992438756e+00 0 0 0
554 1 4 -2.8665851773434259e-01 8.8013203296468081e+00 1.7142753273581953e+01 2.2840950813967553e+00 0 0 0
218 1 3 4.3027482632467390e-01 8.5703609699060053e+00 1.9729569736486368e+01 3.6909385574978244e+00 0 0 0
520 1 4 -3.2567803268718620e-01 8.1288694066698284e+00 6.9809651907945351e+00 1.0777864437892781e-01 0 0 0
574 1 4 -2.0743158544025864e-01 5.0202410135628419e+00 -8.9801665021179389e-01 2.7297043604514353e+00 0 0 0
558 1 4 -3.3113860669193107e-01 5.7224234884618577e+00 -1.2410820678288559e-01 4.7389520995068395e+00 0 0 0
453 1 4 -2.7823119639521426e-01 5.5017960670612496e+00 2.1001637051093255e+01 9.6087292106579909e+00 0 0 0
277 1 3 4.2149797652418824e-01 4.5368228725204425e+00 2.0551480293177455e+01 8.8863703331881254e+00 0 0 0
149 1 2 2.4237578583150265e-01 3.4433024309917277e+00 2.1567077568332717e+01 1.1063664137104212e+01 0 0 0
293 1 3 -2.3355206725742986e-01 4.0347226856915794e+00 2.3278664570137796e+01 9.9490206794100615e+00 0 0 0
427 1 4 -3.3357279862894368e-01 3.3825376091174597e+00 1.2453466571481554e+01 1.1196973173553598e+01 0 0 0
424 1 4 -1.9557798739210019e-01 2.3714377965011684e+00 1.4557861488212360e+01 1.2566713612807320e+01 0 0 -1
469 1 4 -2.1870770481369550e-01 4.7604768539481102e+00 1.9715362996688768e+01 7.9099689340452377e+00 0 0 0
122 1 2 2.3746311303541967e-01 7.1500492809474085e+00 1.8115350781509367e+01 5.0159300521504235e+00 0 0 0
126 1 2 2.4857143727841716e-01 5.4859287388933611e+00 3.0737016310627325e+00 5.6693327434369474e+00 0 0 0
222 1 3 4.8252928217219221e-01 6.8847756665543889e+00 2.6423938649297352e+00 3.5676755645958314e+00 0 0 0
414 1 4 -3.2061442346355834e-01 7.5686424910347370e+00 2.3361249271504017e+00 2.5518089138082756e+00 0 0 0
309 1 3 5.0845596548319139e-01 3.9798869036477429e+00 2.4303153672560477e+01 1.1045305028283888e+01 0 0 0
351 1 3 4.2426892576352682e-01 1.7328129268848622e+00 4.8717703505364263e-01 1.0902440920110358e+01 0 0 0
501 1 4 -4.1972872730358868e-01 3.3431286212603686e+00 2.3984818165508795e+01 1.2147201509619642e+01 0 0 0
4 1 1 9.0285965642206048e-02 8.4236321984660130e+00 2.6399966644921506e+01 4.0150919421421145e+00 0 0 0
8 1 1 7.0593807768780825e-02 7.6153905689287100e+00 1.0537286511710191e+01 3.6229382468611293e+00 0 0 0
15 1 1 8.4711075655565266e-02 4.8945781929502870e+00 -9.1568357954515278e-01 8.5638852029792147e+00 0 0 0
36 1 1 9.6780501202464619e-02 9.8475432276259589e+00 2.6358627828588091e+01 1.3053107370564718e+00 0 0 0
40 1 1 8.4811860167358893e-02 9.7564342314494681e+00 1.1475566633981447e+01 1.4875803083809542e+00 0 0 0