ITEM: TIMESTEP
0
ITEM: NUMBER OF ATOMS
336
ITEM: BOX BOUNDS xy xz yz pp pp pp
0.0000000000000000e+00 2.6364000320399999e+01 0.0000000000000000e+00
0.0000000000000000e+00 1.1574000358599999e+01 0.0000000000000000e+00
0.0000000000000000e+00 1.0708999633800000e+01 0.0000000000000000e+00
ITEM: ATOMS id type xs ys zs
1 1 0.0944878 0.358229 0.444995
2 1 0.905512 0.641771 0.555005
3 1 0.155512 0.641771 0.944995
4 1 0.344488 0.358229 0.0550046
5 1 0.905512 0.858229 0.0550046
6 1 0.0944878 0.141771 0.944995
7 1 0.344488 0.141771 0.555005
8 1 0.155512 0.858229 0.444995
9 1 0.594488 0.358229 0.444995
10 1 0.405512 0.641771 0.555005
11 1 0.655512 0.641771 0.944995
12 1 0.844488 0.358229 0.0550046
13 1 0.405512 0.858229 0.0550046
14 1 0.594488 0.141771 0.944995
15 1 0.844488 0.141771 0.555005
16 1 0.655512 0.858229 0.444995
17 1 0.0239178 0.235855 0.339303
18 1 0.976082 0.764145 0.660697
19 1 0.226082 0.764145 0.839303
20 1 0.273918 0.235855 0.160697
21 1 0.976082 0.735855 0.160697
22 1 0.0239178 0.264145 0.839303
23 1 0.273918 0.264145 0.660697
24 1 0.226082 0.735855 0.339303
25 1 0.523918 0.235855 0.339303
26 1 0.476082 0.764145 0.660697
27 1 0.726082 0.764145 0.839303
28 1 0.773918 0.235855 0.160697
29 1 0.476082 0.735855 0.160697
30 1 0.523918 0.264145 0.839303
31 1 0.773918 0.264145 0.660697
32 1 0.726082 0.735855 0.339303
33 1 0.0765984 0.381663 0.208682
34 1 0.923402 0.618337 0.791318
35 1 0.173402 0.618337 0.708682
36 1 0.326598 0.381663 0.291318
37 1 0.923402 0.881663 0.291318
38 1 0.0765985 0.118337 0.708682
39 1 0.326598 0.118337 0.791318
40 1 0.173402 0.881663 0.208682
41 1 0.576598 0.381663 0.208682
42 1 0.423402 0.618337 0.791318
43 1 0.673402 0.618337 0.708682
44 1 0.826598 0.381663 0.291318
45 1 0.423402 0.881663 0.291318
46 1 0.576598 0.118337 0.708682
47 1 0.826598 0.118337 0.791318
48 1 0.673402 0.881663 0.208682
49 2 0.122694 0.291631 0.423068
50 2 0.877306 0.708369 0.576932
51 2 0.127306 0.708369 0.923068
52 2 0.372694 0.291631 0.076932
53 2 0.877306 0.791631 0.076932
54 2 0.122694 0.208369 0.923068
55 2 0.372694 0.208369 0.576932
56 2 0.127306 0.791631 0.423068
57 2 0.622694 0.291631 0.423068
58 2 0.377306 0.708369 0.576932
59 2 0.627306 0.708369 0.923068
60 2 0.872694 0.291631 0.076932
61 2 0.377306 0.791631 0.0769319
62 2 0.622694 0.208369 0.923068
63 2 0.872694 0.208369 0.576932
64 2 0.627306 0.791631 0.423068
65 2 0.101949 0.408925 0.529769
66 2 0.898051 0.591075 0.470231
67 2 0.148051 0.591075 0.0297687
68 2 0.351949 0.408925 0.970231
69 2 0.898051 0.908925 0.970231
70 2 0.101949 0.0910753 0.0297687
71 2 0.351949 0.0910753 0.470231
72 2 0.148051 0.908925 0.529769
73 2 0.601949 0.408925 0.529769
74 2 0.398051 0.591075 0.470231
75 2 0.648051 0.591075 0.0297687
76 2 0.851949 0.408925 0.970231
77 2 0.398051 0.908925 0.970231
78 2 0.601949 0.0910753 0.0297687
79 2 0.851949 0.0910753 0.470231
80 2 0.648051 0.908925 0.529769
81 2 0.984646 0.20786 0.354549
82 2 0.015354 0.79214 0.645451
83 2 0.265354 0.79214 0.854549
84 2 0.234646 0.20786 0.145451
85 2 0.015354 0.70786 0.145451
86 2 0.984646 0.29214 0.854549
87 2 0.234646 0.29214 0.645451
88 2 0.265354 0.70786 0.354549
89 2 0.484646 0.20786 0.354549
90 2 0.515354 0.79214 0.645451
91 2 0.765354 0.79214 0.854549
92 2 0.734646 0.20786 0.145451
93 2 0.515354 0.70786 0.145451
94 2 0.484646 0.29214 0.854549
95 2 0.734646 0.29214 0.645451
96 2 0.765354 0.70786 0.354549
97 2 0.0511425 0.167554 0.318297
98 2 0.948858 0.832446 0.681703
99 2 0.198858 0.832446 0.818297
100 2 0.301142 0.167554 0.181703
101 2 0.948858 0.667554 0.181703
102 2 0.0511425 0.332446 0.818297
103 2 0.301142 0.332446 0.681703
104 2 0.198858 0.667554 0.318297
105 2 0.551142 0.167554 0.318297
106 2 0.448858 0.832446 0.681703
107 2 0.698858 0.832446 0.818297
108 2 0.801142 0.167554 0.181703
109 2 0.448858 0.667554 0.181703
110 2 0.551142 0.332446 0.818297
111 2 0.801142 0.332446 0.681703
112 2 0.698858 0.667554 0.318297
113 2 0.10457 0.314701 0.188899
114 2 0.89543 0.685299 0.811101
115 2 0.14543 0.685299 0.688899
116 2 0.35457 0.314701 0.311101
117 2 0.89543 0.814701 0.311101
118 2 0.10457 0.185299 0.688899
119 2 0.35457 0.185299 0.811101
120 2 0.14543 0.814701 0.188899
121 2 0.60457 0.314701 0.188899
122 2 0.39543 0.685299 0.811101
123 2 0.64543 0.685299 0.688899
124 2 0.85457 0.314701 0.311101
125 2 0.39543 0.814701 0.311101
126 2 0.60457 0.185299 0.688899
127 2 0.85457 0.185299 0.811101
128 2 0.64543 0.814701 0.188899
129 2 0.0723516 0.447265 0.135229
130 2 0.927648 0.552735 0.864771
131 2 0.177648 0.552735 0.635229
132 2 0.322352 0.447265 0.364771
133 2 0.927648 0.947265 0.364771
134 2 0.0723516 0.0527353 0.635229
135 2 0.322352 0.0527353 0.864771
136 2 0.177648 0.947265 0.135229
137 2 0.572352 0.447265 0.135229
138 2 0.427648 0.552735 0.864771
139 2 0.677648 0.552735 0.635229
140 2 0.822352 0.447265 0.364771
141 2 0.427648 0.947265 0.364771
142 2 0.572352 0.0527353 0.635229
143 2 0.822352 0.0527353 0.864771
144 2 0.677648 0.947265 0.135229
145 3 0.0873298 0.434018 0.333918
146 3 0.91267 0.565982 0.666082
147 3 0.16267 0.565982 0.833918
148 3 0.33733 0.434018 0.166082
149 3 0.91267 0.934018 0.166082
150 3 0.0873298 0.0659823 0.833918
151 3 0.33733 0.0659823 0.666082
152 3 0.16267 0.934018 0.333918
153 3 0.58733 0.434018 0.333918
154 3 0.41267 0.565982 0.666082
155 3 0.66267 0.565982 0.833918
156 3 0.83733 0.434018 0.166082
157 3 0.41267 0.934018 0.166082
158 3 0.58733 0.0659823 0.833918
159 3 0.83733 0.0659823 0.666082
160 3 0.66267 0.934018 0.333918
161 3 0.0464084 0.284592 0.46221
162 3 0.953592 0.715408 0.53779
163 3 0.203592 0.715408 0.96221
164 3 0.296408 0.284592 0.0377899
165 3 0.953592 0.784592 0.0377899
166 3 0.0464084 0.215408 0.96221
167 3 0.296408 0.215408 0.53779
168 3 0.203592 0.784592 0.46221
169 3 0.546408 0.284592 0.46221
170 3 0.453592 0.715408 0.53779
171 3 0.703592 0.715408 0.96221
172 3 0.796408 0.284592 0.0377899
173 3 0.453592 0.784592 0.0377899
174 3 0.546408 0.215408 0.96221
175 3 0.796408 0.215408 0.53779
176 3 0.703592 0.784592 0.46221
177 3 0.0274491 0.309971 0.219523
178 3 0.972551 0.690029 0.780477
179 3 0.222551 0.690029 0.719523
180 3 0.277449 0.309971 0.280477
181 3 0.972551 0.809971 0.280477
182 3 0.0274491 0.190029 0.719523
183 3 0.277449 0.190029 0.780477
184 3 0.222551 0.809971 0.219523
185 3 0.527449 0.309971 0.219523
186 3 0.472551 0.690029 0.780477
187 3 0.722551 0.690029 0.719523
188 3 0.777449 0.309971 0.280477
189 3 0.472551 0.809971 0.280477
190 3 0.527449 0.190029 0.719523
191 3 0.777449 0.190029 0.780477
192 3 0.722551 0.809971 0.219523
193 3 0.114844 0.545122 0.334628
194 3 0.885156 0.454879 0.665372
195 3 0.135156 0.454879 0.834628
196 3 0.364844 0.545122 0.165372
197 3 0.885156 0.0451219 0.165372
198 3 0.114844 0.954879 0.834628
199 3 0.364844 0.954879 0.665372
200 3 0.135156 0.0451215 0.334628
201 3 0.614844 0.545122 0.334628
202 3 0.385156 0.454879 0.665372
203 3 0.635156 0.454879 0.834628
204 3 0.864844 0.545122 0.165372
205 3 0.385156 0.0451219 0.165372
206 3 0.614844 0.954879 0.834628
207 3 0.864844 0.954879 0.665372
208 3 0.635156 0.0451217 0.334628
209 3 0.00602018 0.355087 0.532646
210 3 0.99398 0.644913 0.467354
211 3 0.24398 0.644913 0.0326457
212 3 0.25602 0.355087 0.967354
213 3 0.99398 0.855087 0.967354
214 3 0.00602017 0.144913 0.0326457
215 3 0.25602 0.144913 0.467354
216 3 0.24398 0.855087 0.532646
217 3 0.50602 0.355087 0.532646
218 3 0.49398 0.644913 0.467354
219 3 0.74398 0.644913 0.0326457
220 3 0.75602 0.355087 0.967354
221 3 0.49398 0.855087 0.967354
222 3 0.50602 0.144913 0.0326457
223 3 0.75602 0.144913 0.467354
224 3 0.74398 0.855087 0.532646
225 3 0.981238 0.390296 0.206534
226 3 0.0187619 0.609703 0.793466
227 3 0.268762 0.609703 0.706534
228 3 0.231238 0.390296 0.293466
229 3 0.0187619 0.890296 0.293466
230 3 0.981238 0.109703 0.706534
231 3 0.231238 0.109703 0.793466
232 3 0.268762 0.890296 0.206534
233 3 0.481238 0.390296 0.206534
234 3 0.518762 0.609704 0.793466
235 3 0.768762 0.609704 0.706534
236 3 0.731238 0.390296 0.293466
237 3 0.518762 0.890296 0.293466
238 3 0.481238 0.109704 0.706534
239 3 0.731238 0.109704 0.793466
240 3 0.768762 0.890296 0.206534
241 4 0.114742 0.602359 0.231579
242 4 0.885258 0.397641 0.768421
243 4 0.135258 0.397641 0.731579
244 4 0.364742 0.602359 0.268421
245 4 0.885258 0.102359 0.268421
246 4 0.114742 0.897641 0.731579
247 4 0.364742 0.897641 0.768421
248 4 0.135258 0.102359 0.231579
249 4 0.614742 0.602359 0.231579
250 4 0.385258 0.397641 0.768421
251 4 0.635258 0.397641 0.731579
252 4 0.864742 0.602359 0.268421
253 4 0.385258 0.102359 0.268421
254 4 0.614742 0.897641 0.731579
255 4 0.864742 0.897641 0.768421
256 4 0.635258 0.102359 0.231579
257 4 0.134833 0.575301 0.440541
258 4 0.865167 0.424699 0.559458
259 4 0.115167 0.424699 0.940542
260 4 0.384833 0.5753 0.0594589
261 4 0.865167 0.0753004 0.0594592
262 4 0.134833 0.924699 0.940542
263 4 0.384833 0.924699 0.559458
264 4 0.115167 0.0753005 0.440541
265 4 0.634833 0.575301 0.440541
266 4 0.365167 0.424699 0.559458
267 4 0.615167 0.424699 0.940542
268 4 0.884833 0.5753 0.0594592
269 4 0.365167 0.0753004 0.0594592
270 4 0.634833 0.924699 0.940542
271 4 0.884833 0.924699 0.559458
272 4 0.615167 0.0753005 0.440541
273 4 0.96074 0.314073 0.529646
274 4 0.0392603 0.685927 0.470354
275 4 0.28926 0.685927 0.0296462
276 4 0.21074 0.314073 0.970354
277 4 0.0392603 0.814073 0.970354
278 4 0.96074 0.185927 0.0296463
279 4 0.21074 0.185927 0.470354
280 4 0.28926 0.814073 0.529646
281 4 0.46074 0.314073 0.529646
282 4 0.53926 0.685927 0.470354
283 4 0.78926 0.685927 0.0296462
284 4 0.71074 0.314073 0.970354
285 4 0.53926 0.814073 0.970354
286 4 0.46074 0.185927 0.0296462
287 4 0.71074 0.185927 0.470354
288 4 0.78926 0.814073 0.529646
289 4 0.0219129 0.434122 0.607328
290 4 0.978087 0.565878 0.392672
291 4 0.228087 0.565878 0.107328
292 4 0.271913 0.434122 0.892672
293 4 0.978087 0.934122 0.892672
294 4 0.0219129 0.0658781 0.107328
295 4 0.271913 0.0658781 0.392671
296 4 0.228087 0.934122 0.607328
297 4 0.521913 0.434122 0.607329
298 4 0.478087 0.565878 0.392672
299 4 0.728087 0.565878 0.107329
300 4 0.771913 0.434122 0.892671
301 4 0.478087 0.934122 0.892672
302 4 0.521913 0.0658781 0.107329
303 4 0.771913 0.0658781 0.392671
304 4 0.728087 0.934122 0.607329
305 4 0.93913 0.353956 0.252099
306 4 0.0608696 0.646044 0.747901
307 4 0.31087 0.646044 0.752099
308 4 0.18913 0.353956 0.247901
309 4 0.0608696 0.853956 0.247901
310 4 0.93913 0.146044 0.752099
311 4 0.18913 0.146044 0.747901
312 4 0.31087 0.853956 0.252099
313 4 0.43913 0.353956 0.252099
314 4 0.56087 0.646044 0.747901
315 4 0.81087 0.646044 0.752099
316 4 0.68913 0.353956 0.247901
317 4 0.56087 0.853956 0.247901
318 4 0.43913 0.146044 0.752099
319 4 0.68913 0.146044 0.747901
320 4 0.81087 0.853956 0.252099
321 4 0.986501 0.477489 0.133328
322 4 0.0134994 0.522511 0.866672
323 4 0.263499 0.522511 0.633328
324 4 0.236501 0.477489 0.366672
325 4 0.0134994 0.977489 0.366672
326 4 0.986501 0.0225111 0.633328
327 4 0.236501 0.0225111 0.866672
328 4 0.263499 0.977489 0.133328
329 4 0.486501 0.477489 0.133328
330 4 0.513499 0.522511 0.866672
331 4 0.763499 0.522511 0.633328
332 4 0.736501 0.477489 0.366672
333 4 0.513499 0.977489 0.366672
334 4 0.486501 0.0225111 0.633328
335 4 0.736501 0.0225111 0.866672
336 4 0.763499 0.977489 0.133328
ITEM: TIMESTEP
1000
ITEM: NUMBER OF ATOMS
336
ITEM: BOX BOUNDS xy xz yz pp pp pp
-4.6627065032433007e-01 2.6762438742951751e+01 -2.6275411902648670e-02
-4.5315486270201433e-02 1.1723710921308486e+01 -4.1556815869742567e-02
-4.1172985841392151e-01 1.1120729492213908e+01 1.0439507643832677e-01
ITEM: ATOMS id type xs ys zs
1 1 0.0977189 0.393936 0.442043
2 1 0.913228 0.601253 0.529675
3 1 0.147262 0.64899 0.928584
4 1 0.336234 0.398707 0.0810356
5 1 0.908178 0.874155 0.0641499
6 1 0.0994048 0.122616 0.952661
7 1 0.355394 0.127653 0.593215
8 1 0.151714 0.897648 0.438198
9 1 0.605568 0.37001 0.416628
10 1 0.398002 0.634643 0.557564
11 1 0.654156 0.626567 0.94141
12 1 0.845226 0.359435 0.0353763
13 1 0.415803 0.914755 0.0321302
14 1 0.593992 0.112182 0.924862
15 1 0.834835 0.0921263 0.548338
16 1 0.656356 0.873302 0.447411
17 1 0.0368309 0.259288 0.344682
18 1 0.967713 0.729901 0.653213
19 1 0.218901 0.755062 0.831917
20 1 0.281034 0.269038 0.205489
21 1 0.97209 0.756541 0.175702
22 1 0.0326807 0.232582 0.855487
23 1 0.287894 0.248504 0.676641
24 1 0.213741 0.771536 0.332661
25 1 0.536371 0.261856 0.31408
26 1 0.467629 0.746632 0.655798
27 1 0.725868 0.734036 0.847211
28 1 0.779443 0.247904 0.141156
29 1 0.471232 0.772482 0.143089
30 1 0.531072 0.240307 0.823143
31 1 0.777545 0.234224 0.641755
32 1 0.719187 0.747752 0.342629
33 1 0.0770894 0.413223 0.220972
34 1 0.917271 0.574312 0.752084
35 1 0.167112 0.621382 0.716047
36 1 0.340596 0.40477 0.300671
37 1 0.932017 0.925145 0.278119
38 1 0.0743693 0.0738468 0.741778
39 1 0.337557 0.11485 0.808084
40 1 0.16551 0.917037 0.217167
41 1 0.579948 0.416121 0.20292
42 1 0.409677 0.621805 0.773454
43 1 0.671013 0.614244 0.723678
44 1 0.819689 0.410572 0.252185
45 1 0.407115 0.886981 0.252746
46 1 0.573737 0.0917729 0.708053
47 1 0.832433 0.110109 0.771483
48 1 0.67248 0.893709 0.221726
49 2 0.131399 0.350641 0.478194
50 2 0.88532 0.649007 0.475749
51 2 0.117915 0.716031 0.926911
52 2 0.361869 0.39393 0.00106304
53 2 0.877001 0.807896 0.0527549
54 2 0.130303 0.183513 0.967475
55 2 0.388261 0.185103 0.586972
56 2 0.117852 0.841035 0.461319
57 2 0.635749 0.302728 0.410559
58 2 0.365706 0.694303 0.541198
59 2 0.625633 0.696929 0.940864
60 2 0.881143 0.311703 0.0247409
61 2 0.387911 0.890743 0.95565
62 2 0.62832 0.163342 0.954546
63 2 0.864234 0.113326 0.483909
64 2 0.625553 0.814292 0.481822
65 2 0.0995823 0.465027 0.500124
66 2 0.922773 0.529132 0.464573
67 2 0.138859 0.597588 0.00704548
68 2 0.314978 0.473225 0.0388212
69 2 0.899717 0.92386 0.981765
70 2 0.10524 0.0595616 0.0301679
71 2 0.363495 0.0761748 0.516257
72 2 0.152126 0.95981 0.510406
73 2 0.616104 0.418095 0.496987
74 2 0.396682 0.574621 0.481632
75 2 0.642327 0.574861 0.0168649
76 2 0.846518 0.417485 0.957319
77 2 0.429077 0.000860553 0.994209
78 2 0.59291 0.045017 0.995996
79 2 0.823436 0.00474079 0.512965
80 2 0.651094 0.941351 0.51596
81 2 0.999849 0.229941 0.37018
82 2 0.0047343 0.760377 0.655083
83 2 0.258906 0.775196 0.843955
84 2 0.24044 0.260962 0.21031
85 2 0.00976601 0.722424 0.154082
86 2 0.992653 0.259486 0.867459
87 2 0.248887 0.256824 0.652913
88 2 0.253776 0.762471 0.352739
89 2 0.497907 0.24175 0.340139
90 2 0.506763 0.742451 0.63459
91 2 0.766021 0.72512 0.86846
92 2 0.740348 0.232421 0.120054
93 2 0.511723 0.768745 0.153943
94 2 0.494815 0.276839 0.845836
95 2 0.736799 0.254515 0.620063
96 2 0.760339 0.724939 0.340768
97 2 0.0597795 0.182853 0.320996
98 2 0.943081 0.806347 0.665958
99 2 0.199862 0.840219 0.813578
100 2 0.298971 0.182457 0.224169
101 2 0.948022 0.684086 0.204968
102 2 0.0557696 0.309427 0.832922
103 2 0.30346 0.333681 0.690771
104 2 0.196076 0.684298 0.317126
105 2 0.554292 0.180923 0.288069
106 2 0.453434 0.839732 0.662599
107 2 0.714882 0.826449 0.832615
108 2 0.797692 0.163915 0.160806
109 2 0.458796 0.681381 0.144188
110 2 0.556409 0.313714 0.800585
111 2 0.797602 0.319315 0.632544
112 2 0.6996 0.66555 0.325998
113 2 0.101167 0.356878 0.166562
114 2 0.889685 0.604027 0.820148
115 2 0.144177 0.692612 0.685703
116 2 0.369076 0.344547 0.347767
117 2 0.911732 0.923636 0.36115
118 2 0.0897091 0.064216 0.650346
119 2 0.363135 0.175549 0.855628
120 2 0.138557 0.854141 0.178844
121 2 0.603756 0.353604 0.15313
122 2 0.385498 0.688128 0.815952
123 2 0.649324 0.683295 0.678366
124 2 0.838915 0.401832 0.338258
125 2 0.377264 0.821055 0.282648
126 2 0.597814 0.136857 0.644973
127 2 0.86205 0.160307 0.812742
128 2 0.647895 0.857534 0.156779
129 2 0.0736806 0.484943 0.155542
130 2 0.925962 0.486079 0.788409
131 2 0.163684 0.555162 0.645435
132 2 0.341456 0.481672 0.355599
133 2 0.948672 0.011381 0.293035
134 2 0.0547312 0.985218 0.741113
135 2 0.326826 0.0547291 0.873711
136 2 0.167209 0.980417 0.144355
137 2 0.580526 0.491618 0.139314
138 2 0.412365 0.545529 0.834368
139 2 0.673594 0.543704 0.655969
140 2 0.802002 0.495206 0.265649
141 2 0.40776 0.956423 0.322529
142 2 0.559025 0.0129624 0.667244
143 2 0.827595 0.0380534 0.831254
144 2 0.684214 0.980025 0.184311
145 3 0.109234 0.440632 0.324383
146 3 0.891308 0.555088 0.636978
147 3 0.140459 0.580474 0.819623
148 3 0.362793 0.439455 0.185295
149 3 0.896957 0.940356 0.171731
150 3 0.109542 0.0567201 0.842989
151 3 0.363603 0.0629665 0.70327
152 3 0.141794 0.958109 0.325465
153 3 0.609165 0.443816 0.310337
154 3 0.385338 0.571697 0.667182
155 3 0.642848 0.571441 0.826322
156 3 0.852522 0.427099 0.147889
157 3 0.389043 0.942142 0.141299
158 3 0.606533 0.0607199 0.809515
159 3 0.856471 0.0667223 0.663705
160 3 0.640292 0.914101 0.329492
161 3 0.0554834 0.311855 0.453848
162 3 0.957076 0.679184 0.537835
163 3 0.195516 0.714477 0.941126
164 3 0.299219 0.305152 0.0877865
165 3 0.953422 0.801588 0.0629893
166 3 0.0533299 0.190883 0.966984
167 3 0.312959 0.203796 0.570927
168 3 0.194411 0.816268 0.44657
169 3 0.560697 0.297196 0.426794
170 3 0.444647 0.699408 0.546748
171 3 0.700431 0.69364 0.95426
172 3 0.799327 0.287916 0.0293592
173 3 0.456043 0.827468 0.0304905
174 3 0.551667 0.193607 0.932071
175 3 0.793961 0.176862 0.532435
176 3 0.701647 0.798836 0.453245
177 3 0.0334244 0.333078 0.236937
178 3 0.96115 0.653071 0.757081
179 3 0.215186 0.682122 0.723157
180 3 0.292629 0.341621 0.307161
181 3 0.971565 0.838111 0.274864
182 3 0.0358799 0.163601 0.745541
183 3 0.292257 0.183863 0.786145
184 3 0.210612 0.847307 0.227698
185 3 0.53448 0.342567 0.212562
186 3 0.459245 0.682186 0.766661
187 3 0.719109 0.678167 0.733846
188 3 0.781738 0.317881 0.249361
189 3 0.455234 0.827034 0.253431
190 3 0.530555 0.169172 0.716882
191 3 0.785627 0.18202 0.75673
192 3 0.716896 0.817073 0.232215
193 3 0.120535 0.5711 0.330409
194 3 0.87487 0.427841 0.623329
195 3 0.13732 0.446511 0.843173
196 3 0.365143 0.571481 0.172132
197 3 0.884294 0.0655522 0.153238
198 3 0.11861 0.927841 0.860194
199 3 0.355684 0.931545 0.688013
200 3 0.139842 0.0918061 0.341194
201 3 0.61398 0.575918 0.334051
202 3 0.39253 0.440381 0.660364
203 3 0.63758 0.438135 0.829384
204 3 0.867606 0.551876 0.134325
205 3 0.380291 0.072072 0.149771
206 3 0.615293 0.931377 0.822032
207 3 0.870425 0.937143 0.674304
208 3 0.623995 0.0398976 0.332765
209 3 0.0126576 0.356049 0.529122
210 3 0.00233519 0.639285 0.46832
211 3 0.233445 0.653064 0.0228853
212 3 0.258348 0.321776 0.99518
213 3 0.997068 0.849162 0.986538
214 3 0.0120925 0.131543 0.041055
215 3 0.274508 0.152521 0.484484
216 3 0.23829 0.85946 0.51837
217 3 0.521036 0.343265 0.513968
218 3 0.481331 0.630696 0.473437
219 3 0.735461 0.64187 0.0495401
220 3 0.757078 0.34894 0.955986
221 3 0.501169 0.874044 0.964392
222 3 0.510012 0.156167 0.0176581
223 3 0.748393 0.13043 0.464301
224 3 0.743515 0.844328 0.531302
225 3 0.983905 0.394496 0.220426
226 3 0.00968857 0.592925 0.796876
227 3 0.261386 0.606774 0.715781
228 3 0.246969 0.419956 0.333571
229 3 0.0219394 0.901927 0.290879
230 3 0.984848 0.118006 0.707895
231 3 0.244297 0.104626 0.807934
232 3 0.256941 0.923568 0.199899
233 3 0.48688 0.413735 0.208781
234 3 0.502354 0.598585 0.785932
235 3 0.762722 0.598093 0.704208
236 3 0.729996 0.365495 0.283655
237 3 0.499163 0.903036 0.300382
238 3 0.480444 0.105856 0.703225
239 3 0.739192 0.113593 0.795513
240 3 0.76643 0.8816 0.208059
241 4 0.12134 0.625275 0.234545
242 4 0.871165 0.364458 0.716006
243 4 0.141836 0.372011 0.763358
244 4 0.370558 0.635938 0.260731
245 4 0.882868 0.130194 0.242591
246 4 0.111976 0.861229 0.770293
247 4 0.350017 0.866078 0.777087
248 4 0.141858 0.155749 0.250437
249 4 0.602707 0.647847 0.254446
250 4 0.396176 0.381477 0.75481
251 4 0.646551 0.374965 0.741975
252 4 0.864112 0.6201 0.222497
253 4 0.384097 0.123648 0.24802
254 4 0.603563 0.864924 0.735702
255 4 0.869174 0.885892 0.773627
256 4 0.622747 0.101449 0.239709
257 4 0.136724 0.614529 0.426821
258 4 0.860683 0.394251 0.523987
259 4 0.12038 0.411543 0.940073
260 4 0.372947 0.616894 0.0711654
261 4 0.869647 0.0955858 0.0504297
262 4 0.137258 0.891874 0.955558
263 4 0.371708 0.886138 0.593548
264 4 0.125178 0.131453 0.438431
265 4 0.633968 0.610362 0.429661
266 4 0.383952 0.387005 0.565573
267 4 0.613427 0.389941 0.912289
268 4 0.88797 0.592886 0.0429598
269 4 0.365848 0.128462 0.0603832
270 4 0.633009 0.889231 0.917341
271 4 0.882153 0.884327 0.581956
272 4 0.608018 0.0766995 0.428193
273 4 0.968983 0.315614 0.517483
274 4 0.0464511 0.670891 0.497107
275 4 0.279717 0.676764 0.0230101
276 4 0.217025 0.270522 0.00412102
277 4 0.0407245 0.814657 0.00831767
278 4 0.966275 0.164119 0.0270754
279 4 0.230409 0.194798 0.476177
280 4 0.281801 0.815736 0.516351
281 4 0.476096 0.312037 0.505846
282 4 0.528778 0.638949 0.490934
283 4 0.779756 0.676902 0.0588799
284 4 0.712263 0.333391 0.985643
285 4 0.544534 0.837463 0.988461
286 4 0.464803 0.190044 0.00407619
287 4 0.70416 0.161183 0.487547
288 4 0.787783 0.80569 0.522598
289 4 0.0242235 0.410484 0.621482
290 4 0.99656 0.585748 0.373969
291 4 0.217762 0.583248 0.101835
292 4 0.267816 0.375025 0.900881
293 4 0.987162 0.896387 0.888493
294 4 0.0216725 0.0716698 0.129737
295 4 0.289075 0.0795374 0.412681
296 4 0.228953 0.9286 0.602424
297 4 0.535208 0.393399 0.607203
298 4 0.466578 0.567444 0.391261
299 4 0.716537 0.585888 0.136325
300 4 0.766423 0.415997 0.868685
301 4 0.493169 0.928142 0.867912
302 4 0.520808 0.097916 0.108564
303 4 0.754089 0.055451 0.382378
304 4 0.732874 0.906083 0.619708
305 4 0.945169 0.352504 0.267395
306 4 0.0519263 0.638322 0.778048
307 4 0.30474 0.639095 0.750708
308 4 0.201958 0.39016 0.316601
309 4 0.0609717 0.849642 0.260485
310 4 0.943492 0.166409 0.733274
311 4 0.202016 0.135688 0.774272
312 4 0.300124 0.897081 0.238985
313 4 0.447693 0.365228 0.248862
314 4 0.546454 0.617043 0.747937
315 4 0.806777 0.623456 0.735994
316 4 0.689906 0.323864 0.242751
317 4 0.545271 0.875261 0.284996
318 4 0.441304 0.14975 0.750085
319 4 0.695819 0.142723 0.76343
320 4 0.807033 0.834021 0.241733
321 4 0.979715 0.474166 0.140809
322 4 0.00564355 0.507211 0.8673
323 4 0.25878 0.514235 0.656703
324 4 0.255212 0.515361 0.381622
325 4 0.0246932 0.980582 0.368652
326 4 0.98317 0.0307639 0.639649
327 4 0.249785 0.0111355 0.865049
328 4 0.25218 0.0100761 0.132637
329 4 0.48364 0.50504 0.148189
330 4 0.493532 0.505632 0.842645
331 4 0.756017 0.512713 0.636882
332 4 0.727807 0.442747 0.361152
333 4 0.489466 0.990573 0.360818
334 4 0.475648 0.0196316 0.636075
335 4 0.743796 0.0309467 0.869044
336 4 0.768684 0.968483 0.137876
ITEM: TIMESTEP
2000
ITEM: NUMBER OF ATOMS
336
ITEM: BOX BOUNDS xy xz yz pp pp pp
-5.2255026561367535e-01 2.6826993948676979e+01 -1.1265086412407302e-02
-1.2015679614021835e-02 1.1657462853112460e+01 -4.8291550924178195e-02
-5.7273420005904008e-01 1.1281733833859033e+01 7.1446814898475361e-02
ITEM: ATOMS id type xs ys zs
1 1 0.11922 0.351482 0.401467
2 1 0.891576 0.677153 0.577781
3 1 0.13101 0.653798 0.904311
4 1 0.352645 0.35107 0.108741
5 1 0.900984 0.840551 0.0668766
6 1 0.113684 0.167065 0.902514
7 1 0.370316 0.149038 0.628748
8 1 0.133768 0.851079 0.385562
9 1 0.619157 0.337373 0.377792
10 1 0.379786 0.665595 0.59862
11 1 0.628669 0.649751 0.893776
12 1 0.858177 0.328378 0.0627986
13 1 0.389921 0.858382 0.106635
14 1 0.620699 0.144206 0.886481
15 1 0.855379 0.174431 0.561015
16 1 0.635086 0.828975 0.397012
17 1 0.0417072 0.262527 0.321556
18 1 0.9553 0.735269 0.722421
19 1 0.209581 0.735293 0.813061
20 1 0.287197 0.296829 0.249163
21 1 0.963986 0.74777 0.209715
22 1 0.0302742 0.231274 0.826164
23 1 0.291355 0.234888 0.698136
24 1 0.210263 0.785101 0.276294
25 1 0.544121 0.259392 0.279507
26 1 0.45641 0.745522 0.69596
27 1 0.710026 0.726664 0.825211
28 1 0.78866 0.240776 0.183016
29 1 0.459118 0.784721 0.237077
30 1 0.544075 0.247534 0.803062
31 1 0.788705 0.246932 0.691519
32 1 0.715946 0.74432 0.310668
33 1 0.100034 0.39017 0.198659
34 1 0.889119 0.594643 0.777505
35 1 0.146639 0.611862 0.704267
36 1 0.356269 0.441172 0.307501
37 1 0.893641 0.878017 0.274842
38 1 0.0890975 0.11713 0.704044
39 1 0.340683 0.0937577 0.826462
40 1 0.151943 0.940415 0.193532
41 1 0.605112 0.395731 0.177824
42 1 0.399691 0.597226 0.801548
43 1 0.651013 0.612839 0.688794
44 1 0.855638 0.367711 0.269976
45 1 0.396434 0.93146 0.310001
46 1 0.597037 0.104858 0.681397
47 1 0.856758 0.115142 0.770326
48 1 0.654988 0.867577 0.191199
49 2 0.151024 0.290567 0.408988
50 2 0.865237 0.748513 0.582051
51 2 0.108852 0.728792 0.87731
52 2 0.384253 0.289746 0.131378
53 2 0.875282 0.774889 0.0257818
54 2 0.135144 0.241725 0.873202
55 2 0.396387 0.223001 0.653556
56 2 0.108992 0.782069 0.345491
57 2 0.64261 0.260683 0.358165
58 2 0.352797 0.729564 0.628155
59 2 0.604623 0.726195 0.870888
60 2 0.889309 0.272116 0.0576239
61 2 0.361585 0.7901 0.112461
62 2 0.649259 0.214302 0.888247
63 2 0.877822 0.253337 0.556515
64 2 0.605191 0.758848 0.403865
65 2 0.129548 0.398481 0.476533
66 2 0.885058 0.650421 0.486542
67 2 0.114843 0.631853 0.985257
68 2 0.358491 0.383305 0.0245591
69 2 0.909639 0.897035 0.995381
70 2 0.134917 0.144647 0.9824
71 2 0.390604 0.117785 0.551701
72 2 0.117001 0.859194 0.472551
73 2 0.634337 0.35135 0.464549
74 2 0.36732 0.637613 0.512025
75 2 0.611767 0.619746 0.973233
76 2 0.85709 0.368797 0.978738
77 2 0.38429 0.895426 0.0192755
78 2 0.631633 0.10583 0.970235
79 2 0.863485 0.140445 0.474601
80 2 0.629517 0.885309 0.471416
81 2 0.00232282 0.251653 0.334502
82 2 0.992638 0.769164 0.731042
83 2 0.249699 0.747033 0.831041
84 2 0.247823 0.287261 0.259739
85 2 0.00257826 0.717213 0.21782
86 2 0.991568 0.225083 0.857284
87 2 0.252221 0.258681 0.681132
88 2 0.250589 0.7698 0.288056
89 2 0.503934 0.251646 0.283599
90 2 0.493947 0.768632 0.684703
91 2 0.749342 0.744726 0.842409
92 2 0.749449 0.228531 0.175022
93 2 0.496056 0.755007 0.239987
94 2 0.504846 0.251607 0.82966
95 2 0.747522 0.257933 0.699208
96 2 0.755098 0.732008 0.332021
97 2 0.0523992 0.177968 0.291369
98 2 0.932138 0.810603 0.742806
99 2 0.196442 0.824471 0.786929
100 2 0.305711 0.219786 0.278228
101 2 0.94046 0.673759 0.231331
102 2 0.0339156 0.32132 0.802168
103 2 0.306169 0.315373 0.736852
104 2 0.19445 0.705255 0.239746
105 2 0.55902 0.177564 0.242356
106 2 0.441671 0.828363 0.725241
107 2 0.696416 0.814255 0.799464
108 2 0.803918 0.15583 0.210084
109 2 0.438811 0.711237 0.271128
110 2 0.552438 0.334926 0.774019
111 2 0.804449 0.331585 0.707265
112 2 0.703192 0.655173 0.284124
113 2 0.120818 0.319352 0.155599
114 2 0.86291 0.654155 0.817461
115 2 0.127967 0.690102 0.682387
116 2 0.381115 0.379574 0.350648
117 2 0.868277 0.809586 0.303718
118 2 0.103058 0.200973 0.667461
119 2 0.362658 0.147817 0.885638
120 2 0.126153 0.886561 0.144095
121 2 0.626527 0.325942 0.136411
122 2 0.379601 0.662603 0.850658
123 2 0.631238 0.682483 0.643105
124 2 0.879911 0.29967 0.301136
125 2 0.369301 0.864401 0.34279
126 2 0.623076 0.170037 0.65142
127 2 0.883555 0.175837 0.809948
128 2 0.632843 0.800628 0.157795
129 2 0.0997595 0.4551 0.12844
130 2 0.884393 0.510023 0.828717
131 2 0.140575 0.550038 0.633276
132 2 0.360366 0.517589 0.357103
133 2 0.886693 0.953094 0.333638
134 2 0.095988 0.0563122 0.630706
135 2 0.336512 0.0183143 0.884553
136 2 0.154551 0.0189549 0.139573
137 2 0.606163 0.466279 0.109266
138 2 0.402047 0.517548 0.85228
139 2 0.653599 0.542441 0.623124
140 2 0.86414 0.437885 0.329932
141 2 0.393746 0.00294171 0.364062
142 2 0.591517 0.0350913 0.617051
143 2 0.860883 0.0375785 0.818565
144 2 0.650612 0.9364 0.122552
145 3 0.127232 0.428641 0.303446
146 3 0.87336 0.583784 0.657096
147 3 0.120629 0.575442 0.809202
148 3 0.369794 0.447315 0.185834
149 3 0.87752 0.907875 0.155508
150 3 0.121073 0.0887241 0.801741
151 3 0.37356 0.0685045 0.728678
152 3 0.12691 0.948875 0.304867
153 3 0.629993 0.423151 0.288671
154 3 0.372449 0.579399 0.694339
155 3 0.622606 0.574779 0.790254
156 3 0.876448 0.403205 0.157522
157 3 0.376645 0.948252 0.193504
158 3 0.626219 0.0687659 0.785288
159 3 0.875111 0.0974043 0.649509
160 3 0.627248 0.903702 0.294854
161 3 0.0741091 0.275877 0.419921
162 3 0.939607 0.734203 0.600478
163 3 0.178555 0.71822 0.916529
164 3 0.304144 0.295383 0.129875
165 3 0.946143 0.764915 0.0903747
166 3 0.0647823 0.216562 0.925944
167 3 0.321459 0.211713 0.601083
168 3 0.182967 0.790812 0.38523
169 3 0.569412 0.277958 0.388083
170 3 0.427071 0.732184 0.58808
171 3 0.678154 0.697685 0.923731
172 3 0.811385 0.256213 0.0714498
173 3 0.43849 0.800177 0.12058
174 3 0.575354 0.218688 0.901219
175 3 0.804233 0.220973 0.574346
176 3 0.682949 0.767588 0.410704
177 3 0.0503766 0.337007 0.218198
178 3 0.938681 0.648197 0.805385
179 3 0.197781 0.65737 0.713532
180 3 0.308105 0.385051 0.32976
181 3 0.944793 0.830882 0.291647
182 3 0.0375904 0.159792 0.724238
183 3 0.294885 0.160773 0.803119
184 3 0.198224 0.872163 0.184838
185 3 0.555844 0.339681 0.182166
186 3 0.44654 0.665565 0.792025
187 3 0.699344 0.668528 0.713697
188 3 0.804367 0.315519 0.276815
189 3 0.445078 0.871854 0.324313
190 3 0.551287 0.170193 0.698151
191 3 0.808557 0.172041 0.784499
192 3 0.704275 0.816174 0.205851
193 3 0.115525 0.554247 0.336158
194 3 0.888931 0.464439 0.611193
195 3 0.129354 0.4461 0.850068
196 3 0.367346 0.571198 0.135903
197 3 0.887753 0.0391638 0.133573
198 3 0.114429 0.960191 0.833673
199 3 0.372034 0.943221 0.686639
200 3 0.135105 0.0657785 0.36813
201 3 0.61964 0.546411 0.336704
202 3 0.374642 0.452331 0.65652
203 3 0.631286 0.44518 0.817238
204 3 0.86255 0.52806 0.135014
205 3 0.391004 0.0680288 0.144743
206 3 0.613429 0.944355 0.820737
207 3 0.869455 0.969643 0.615367
208 3 0.633699 0.0338223 0.321839
209 3 0.0459165 0.326472 0.52376
210 3 0.980696 0.683745 0.524719
211 3 0.209206 0.649603 0.00470846
212 3 0.26359 0.347662 0.0497738
213 3 0.987218 0.810116 0.0138045
214 3 0.0404798 0.155819 0.02785
215 3 0.295389 0.145124 0.503313
216 3 0.217188 0.823882 0.484972
217 3 0.536827 0.342493 0.471641
218 3 0.459173 0.677353 0.497729