LAMMPS data file via write_data, version 15 Apr 2020, timestep = 80000

336 atoms
4 atom types

-9.3764716233010503e-01 2.7301647482730409e+01 xlo xhi
1.0424182421972628e-01 1.1469758534380022e+01 ylo yhi
-5.8825067071189707e-01 1.1297250304512271e+01 zlo zhi
2.1930144110303056e+00 -3.7121756883213713e-01 -3.5515431261204888e-01 xy xz yz

Masses

1 12.0107
2 1.00794
3 14.0067
4 15.9994

Atoms # full

1 1 1 -3.6181815791846872e-02 3.4585982074735679e+00 3.7142843748995853e+00 3.7850071654258812e+00 0 0 0
2 1 1 -3.6826466820743739e-02 2.4840572033669950e+01 7.6040206834313615e+00 6.7237330251877268e+00 0 0 0
3 1 1 -3.3861267494438123e-02 3.3723499511769290e+00 7.4737835675262350e+00 9.9561165033996204e+00 0 0 0
4 1 1 -4.0829145151130244e-02 1.0790328591195836e+01 3.5267743193861381e+00 8.1021838562704551e-01 0 0 0
5 1 1 -3.2097526679787713e-02 2.7307951703606172e+01 8.0449347878983595e+00 1.1219063773430724e+00 0 0 0
6 1 1 -3.3199073304137489e-02 7.4895158354642133e-01 2.9761332984384063e+00 9.1467186006799412e+00 0 0 0
7 1 1 -3.7084894628406931e-02 8.5318981105625404e+00 1.2422024296007648e+00 9.0962284403098099e+00 0 0 0
8 1 1 -3.8472094785593464e-02 6.0201539033908542e+00 8.3916312289522459e+00 3.8055798161949266e+00 0 0 0
9 1 1 -3.6732973631759522e-02 1.7454903145624758e+01 3.8664818733363973e+00 3.8968144703402423e+00 0 0 0
10 1 1 -3.9226150751880351e-02 1.0611588351865823e+01 7.3153372916793149e+00 6.7546398786727782e+00 0 0 0
11 1 1 -3.6729702353591763e-02 1.7498772992235825e+01 7.0870152761844762e+00 9.8607342570275911e+00 0 0 0
12 1 1 -3.7761566234455132e-02 2.4867167813494504e+01 3.8958503383802912e+00 1.2531651857615522e+00 0 0 0
13 1 1 -2.8333915904736443e-02 1.3502714095487523e+01 8.5417722826870843e+00 1.3395782761260913e+00 0 0 0
14 1 1 -3.3555710097430913e-02 1.4869840892407794e+01 2.5866940388151836e+00 8.9832659874331835e+00 0 0 0
15 1 1 -3.0603618621364924e-02 2.1783532115255120e+01 2.8931693566577268e+00 7.6844470062439196e+00 0 0 0
16 1 1 -2.9085543238165847e-02 2.0672591261699118e+01 8.5794439940528768e+00 3.4030661815404692e+00 0 0 0
17 1 1 -3.3968355977845949e-02 1.6210678695198255e+00 2.7992433564188097e+00 2.3324290005644044e+00 0 0 0
18 1 1 -2.5857790784665397e-02 2.6773140387098341e+01 8.5163189095448075e+00 7.9957918694443730e+00 0 0 0
19 1 1 -2.7308921819904533e-02 5.4600747793687727e+00 8.3903273679986796e+00 8.8059017559787520e+00 0 0 0
20 1 1 -2.8249048551991392e-02 8.7221988089956319e+00 2.8219307948190631e+00 2.0875040230120021e+00 0 0 0
21 1 1 -3.8603072281300582e-02 2.8711918457768487e+01 9.1903917126540442e+00 2.8886878606107227e+00 0 0 0
22 1 1 -3.9255753007556279e-02 2.7357894191794252e+01 1.8954119847111546e+00 7.5500893579420190e+00 -1 0 0
23 1 1 -3.7880840406843183e-02 8.1254664891181871e+00 2.7556695414589409e+00 7.0871081798544839e+00 0 0 0
24 1 1 -3.2405845073104525e-02 7.7668759726226382e+00 9.2210013378985778e+00 2.1550347137334969e+00 0 0 0
25 1 1 -2.9797409248458012e-02 1.5651632476384314e+01 3.2236508871696672e+00 2.1699666335039938e+00 0 0 0
26 1 1 -2.5517969867362454e-02 1.2824486916267769e+01 7.8754503018614601e+00 7.9451797029510782e+00 0 0 0
27 1 1 -2.8158402450312942e-02 1.9262248236450219e+01 8.2076520832111584e+00 8.3235468066625771e+00 0 0 0
28 1 1 -2.5243569867759962e-02 2.2779563396062347e+01 3.0066315401797019e+00 2.4394606637728216e+00 0 0 0
29 1 1 -3.8672762475108022e-02 1.5058281055197707e+01 9.5217460660609738e+00 3.0769294447989344e+00 0 0 0
30 1 1 -3.9414942292983271e-02 1.2992726289041290e+01 1.5306628793160708e+00 7.7463010602820308e+00 0 0 0
31 1 1 -3.6324048582708407e-02 2.0231558989695756e+01 1.6629946453598246e+00 9.2143908186776233e+00 0 0 0
32 1 1 -3.8100846864264945e-02 2.2275613747993027e+01 9.7020765223140160e+00 1.8584878351186940e+00 0 0 0
33 1 1 -2.8030764780570032e-02 3.2928321155728639e+00 4.5115401650343143e+00 1.4318305462556715e+00 0 0 0
34 1 1 -3.3855151658844493e-02 2.5136113719146572e+01 6.9559295690040006e+00 9.2153681925806730e+00 0 0 0
35 1 1 -3.4857884520043354e-02 3.7895986903897407e+00 7.0000012229078861e+00 7.4552134499534599e+00 0 0 0
36 1 1 -3.2897727645712908e-02 1.0362546560429507e+01 4.5390285679392184e+00 3.0512996026528483e+00 0 0 0
37 1 1 -3.7818027782635474e-02 2.6288255341746765e+01 9.8262468208273219e+00 2.7120138741767978e+00 0 0 0
38 1 1 -3.9383722089385398e-02 1.5610489320385259e+00 1.0641611733910539e+00 7.7062987259430216e+00 0 0 0
39 1 1 -2.8624930029914803e-02 6.2587046265520296e+00 2.4867041461884121e+00 8.8577024760975824e+00 0 0 0
40 1 1 -4.6221571240612450e-02 5.4117507376060585e+00 1.0175138935177802e+01 2.0884426117194095e+00 0 0 0
41 1 1 -3.5676226308262851e-02 1.7695516671874604e+01 4.6704518774704757e+00 1.5621964382254077e+00 0 0 0
42 1 1 -3.3696987719227564e-02 1.1060962353110945e+01 6.3379844784595907e+00 9.0523533002530314e+00 0 0 0
43 1 1 -3.5673175641715835e-02 1.7596365157138788e+01 6.5483920407478351e+00 7.4245269009895551e+00 0 0 0
44 1 1 -3.7724686627957832e-02 2.4301499639701593e+01 4.7448252885912305e+00 3.5498009558553507e+00 0 0 0
45 1 1 -3.7649710497936084e-02 1.2570124037068727e+01 1.0159249734097823e+01 3.1289081498276898e+00 0 0 0
46 1 1 -4.1503686677196922e-02 1.5326162169439236e+01 7.0049304364960774e-01 7.4253998518726068e+00 0 0 0
47 1 1 -3.7963154314562431e-02 2.2697248289703150e+01 1.0025609496080672e+00 9.1666898391069331e+00 0 0 0
48 1 1 -4.1958298283097668e-02 1.9793951878393422e+01 1.0327230667555625e+01 1.7308336396963457e+00 0 0 0
49 1 2 1.4564478644533774e-01 4.2940537992352130e+00 2.9737733920551830e+00 3.9160672170096271e+00 0 0 0
50 1 2 1.4814924597477891e-01 2.4081683720748689e+01 8.4225238820235724e+00 6.8495859300468389e+00 0 0 0
51 1 2 1.3950145422732568e-01 2.6278395733419337e+00 8.2886596099599608e+00 9.8046969686275105e+00 0 0 0
52 1 2 1.3228513799313926e-01 1.1480521195756458e+01 2.7845531352566031e+00 1.1224619595299576e+00 0 0 0
53 1 2 1.3623200387114762e-01 2.7172832487969540e+01 7.0249395249727993e+00 1.6445967158548611e+00 0 0 0
54 1 2 1.3846581242223721e-01 1.0924934148823289e+00 3.9459833645109086e+00 8.7773356232472715e+00 0 0 0
55 1 2 1.3042543679071333e-01 9.2012928502997333e+00 1.6660168630592145e+00 9.8758651659596506e+00 0 0 0
56 1 2 1.2941832481667381e-01 5.7652213748665257e+00 7.5252881220892185e+00 3.1961074715864664e+00 0 0 0
57 1 2 1.3864904830667638e-01 1.8159267816450416e+01 3.0403704454571834e+00 3.8724314683611363e+00 0 0 0
58 1 2 1.3641559320480348e-01 9.8619289447623135e+00 8.0418700451189267e+00 7.1003026435003616e+00 0 0 0
59 1 2 1.3812499696619726e-01 1.6654541165016525e+01 7.9054869040679510e+00 9.7312843397889761e+00 0 0 0
60 1 2 1.4004126568968428e-01 2.5672112173048699e+01 3.1585966773930196e+00 1.2719667391419125e+00 0 0 0
61 1 2 1.4205659174443575e-01 1.3481699934601414e+01 7.4040960059888672e+00 1.6211459390357357e+00 0 0 0
62 1 2 1.3129863403519890e-01 1.5213644312737268e+01 3.3819678934151987e+00 8.2355057610327638e+00 0 0 0
63 1 2 1.4325240215665397e-01 2.1850730963308230e+01 3.8494621093803079e+00 8.1970099690075102e+00 0 0 0
64 1 2 1.3723827367065014e-01 2.0351928867689207e+01 7.6724175169508015e+00 2.8205203665901641e+00 0 0 0
65 1 2 1.4034772547017446e-01 3.4534019149564976e+00 4.3048887759573224e+00 4.7716176166986930e+00 0 0 0
66 1 2 1.3309194118985873e-01 2.4503731405941334e+01 7.1541306144994623e+00 5.7319381374471208e+00 0 0 0
67 1 2 1.4624441335919486e-01 3.0304536503193336e+00 7.0749223293257311e+00 1.0922807517240283e+01 0 0 -1
68 1 2 1.4035974532550746e-01 1.1085761080256603e+01 3.8066846393456819e+00 -2.1180173253972184e-01 0 0 1
69 1 2 1.3901082386974939e-01 2.7282534196402366e+01 7.8449566663171426e+00 -1.2726223297486849e-02 0 0 1
70 1 2 1.4808720179948956e-01 8.0806412185895793e-01 3.1745658995922295e+00 1.0231572588152911e+01 0 0 -1
71 1 2 1.4769100412683217e-01 8.8371963951875259e+00 1.4405179927250711e-01 9.1636204795598459e+00 0 0 0
72 1 2 1.3796256411238822e-01 5.9431006185858886e+00 8.0239750725466941e+00 4.8846285667232054e+00 0 0 0
73 1 2 1.3865323515595840e-01 1.7445446423549882e+01 4.2534217624102526e+00 4.9273592131034372e+00 0 0 0
74 1 2 1.3407148914747377e-01 1.0257528105196959e+01 7.0554354930865779e+00 5.7557294955806695e+00 0 0 0
75 1 2 1.3813200956495919e-01 1.7335900307681595e+01 6.6977539570632816e+00 1.0847179095912955e+01 0 0 -1
76 1 2 1.4292778552677260e-01 2.4993988070780780e+01 4.3895076582744128e+00 2.8902639638031957e-01 0 0 1
77 1 2 1.4282103262854901e-01 1.3410833845837098e+01 8.4598476183993476e+00 1.8829421348958963e-01 0 0 1
78 1 2 1.3966822296783787e-01 1.5120356772546792e+01 3.1525900823745285e+00 9.9018610768527182e+00 0 0 -1
79 1 2 1.4976819341769876e-01 2.1883245691722429e+01 3.2491119622410873e+00 6.6028024682509106e+00 0 0 0
80 1 2 1.4736484367647842e-01 2.0587708893961302e+01 8.3697519129117133e+00 4.5118511957738949e+00 0 0 0
81 1 2 1.4704237007126625e-01 5.5566359125236731e-01 2.6833597267830922e+00 2.5352307040692295e+00 1 0 0
82 1 2 1.5246559311604005e-01 2.7808179569544937e+01 8.3412083453547119e+00 7.6045838104998538e+00 -1 0 0
83 1 2 1.5273599057928575e-01 6.5569155823878482e+00 8.3729575180883309e+00 9.0244657441754423e+00 0 0 0
84 1 2 1.5335808244073457e-01 7.5763774564222857e+00 2.7109372848387552e+00 1.9888162302569365e+00 0 0 0
85 1 2 1.4053005350194975e-01 1.4813301043279585e+00 9.6770264415343910e+00 2.9944578110036408e+00 0 0 0
86 1 2 1.4729828413715323e-01 2.6392138141418762e+01 1.3509512780333497e+00 7.7127664094135167e+00 0 0 0
87 1 2 1.3872510609996749e-01 8.1655226996801265e+00 2.6032993158720501e+00 5.9681158871164115e+00 0 0 0
88 1 2 1.4523505221837502e-01 8.8664658208408103e+00 9.3379753269661165e+00 2.0352382342305915e+00 0 0 0
89 1 2 1.4704446508919716e-01 1.4540537145521405e+01 3.1722170556426250e+00 2.1755251369959097e+00 0 0 0
90 1 2 1.4923903152932941e-01 1.3980097699012482e+01 7.7868216013275244e+00 7.7773697093979166e+00 0 0 0
91 1 2 1.5625234564418536e-01 2.0365181981551547e+01 8.4863818059183913e+00 8.2637507326499424e+00 0 0 0
92 1 2 1.5767370387165786e-01 2.1716732973300036e+01 2.9259699623944351e+00 2.2186193645164227e+00 0 0 0
93 1 2 1.4080019904090005e-01 1.6039334973933560e+01 1.0028935485213104e+01 3.0263919321442772e+00 0 0 0
94 1 2 1.3856349956371650e-01 1.1962616688238672e+01 1.0497282502406917e+00 7.8272127608747191e+00 0 0 0
95 1 2 1.4164992655687070e-01 1.9132108659882533e+01 1.3445052436354512e+00 9.3482761319089107e+00 0 0 0
96 1 2 1.3705878881778172e-01 2.3286988521391784e+01 1.0178229070531390e+01 1.9269521789484259e+00 0 0 0
97 1 2 1.2953158609400017e-01 1.9583050930649679e+00 1.8102247110502847e+00 1.9197994046159432e+00 0 0 0
98 1 2 1.4420784887305141e-01 2.6657739765451119e+01 9.5812527483219512e+00 8.3125770727904289e+00 0 0 0
99 1 2 1.3914951486180593e-01 5.2979156718256633e+00 9.4977455517485438e+00 8.4918200159785719e+00 0 0 0
100 1 2 1.3463180953143783e-01 9.1449831550907863e+00 1.8701178325761370e+00 2.6388016012487476e+00 0 0 0
101 1 2 1.4018738473147704e-01 2.8664994337818847e+01 8.4899402108523354e+00 3.7322258724055519e+00 0 0 0
102 1 2 1.3318773742456860e-01 2.7147593856837560e+01 2.5545261890323685e+00 6.6799163743029428e+00 -1 0 0
103 1 2 1.2386248251467638e-01 8.4881211350138859e+00 3.8310768037085028e+00 7.2436515734072611e+00 0 0 0
104 1 2 1.3629519298603557e-01 7.5908682230113884e+00 8.3468165132438870e+00 1.5421145575263964e+00 0 0 0
105 1 2 1.3502126402401196e-01 1.5860689370327316e+01 2.2335592444456327e+00 1.7760401320640464e+00 0 0 0
106 1 2 1.4779812769526249e-01 1.2626685703537037e+01 8.9720983346362111e+00 8.2496609347402803e+00 0 0 0
107 1 2 1.3748217320123499e-01 1.8775268264500959e+01 9.1616449297125051e+00 7.9860278755022822e+00 0 0 0
108 1 2 1.4825924541210303e-01 2.3067373505159985e+01 2.0492126398604960e+00 3.0124816001947110e+00 0 0 0
109 1 2 1.3165976330273058e-01 1.5195606170784682e+01 8.8261378469282796e+00 3.9512816099905930e+00 0 0 0
110 1 2 1.2546580173455332e-01 1.2943815121066718e+01 2.1953908532241040e+00 6.8476667167013403e+00 0 0 0
111 1 2 1.3731159353716696e-01 2.0298568051830308e+01 2.4312966552979960e+00 1.0019911346319653e+01 0 0 0
112 1 2 1.3194712687641666e-01 2.2386736156043558e+01 9.0909439395570111e+00 9.0141189437395619e-01 0 0 0
113 1 2 1.4551767099725105e-01 3.8922168187756387e+00 3.8641685015566982e+00 7.4512190878258178e-01 0 0 0
114 1 2 1.4880449511215041e-01 2.4591392858341244e+01 7.5372962797792864e+00 9.9612293894636057e+00 0 0 0
115 1 2 1.4234806531685568e-01 3.0850367884225367e+00 7.8400114550439630e+00 7.1285833235615232e+00 0 0 0
116 1 2 1.4412477425777104e-01 1.0926998508093213e+01 3.9113815376360876e+00 3.7801204473516945e+00 0 0 0
117 1 2 1.4243950840789785e-01 2.5825312025874975e+01 9.1534763489091837e+00 3.4804916076918433e+00 0 0 0
118 1 2 1.3317467506831665e-01 2.1074173517963013e+00 1.5319765445527478e+00 6.8892863190085478e+00 0 0 0
119 1 2 1.4181266479752655e-01 6.2070090716738449e+00 3.3594510763862222e+00 9.5302770412193034e+00 0 0 0
120 1 2 1.2410666367757153e-01 5.0098356890691385e+00 9.5160545077943119e+00 1.2688065006257432e+00 0 0 0
121 1 2 1.4431379743660086e-01 1.8404564454931432e+01 3.9824679309298561e+00 1.0461425157207394e+00 0 0 0
122 1 2 1.4044443422430561e-01 1.0458026154409563e+01 6.9711914986176335e+00 9.7506599949160435e+00 0 0 0
123 1 2 1.3715427377773889e-01 1.6774180845789246e+01 7.2256893043719570e+00 7.1631826055007419e+00 0 0 0
124 1 2 1.3264583904074703e-01 2.4949555001257217e+01 4.0452094413008837e+00 4.0915701258922885e+00 0 0 0
125 1 2 1.3674467646123889e-01 1.1990635441240526e+01 9.7201663257662325e+00 3.9351519511194999e+00 0 0 0
126 1 2 1.2516977387361830e-01 1.5726345155943324e+01 1.2861243975695553e+00 6.5043051472302960e+00 0 0 0
127 1 2 1.3639418865688782e-01 2.3169695547335497e+01 1.4198285475450889e+00 1.0076349446319529e+01 0 0 0
128 1 2 1.2778603508392361e-01 1.9490974706337582e+01 9.7386445713388028e+00 8.3658627237415040e-01 0 0 0
129 1 2 1.5333759683903500e-01 3.2780863944652485e+00 5.4872443980087846e+00 8.9679620769403989e-01 0 0 0
130 1 2 1.4113570531879602e-01 2.5246747069534116e+01 5.9636162904546062e+00 9.7146921936285384e+00 0 0 0
131 1 2 1.4397437444441646e-01 3.6706781143950282e+00 6.1928785390299179e+00 6.7121374242743892e+00 0 0 0
132 1 2 1.4842995016777552e-01 1.0365549797333955e+01 5.5629484239253486e+00 3.4687158692483555e+00 0 0 0
133 1 2 1.4021520666221812e-01 2.5618551158533421e+01 1.0691292158838063e+01 2.5397627230115929e+00 0 0 0
134 1 2 1.4157467228052972e-01 2.0438169308520857e+00 9.3812397371531797e-02 7.8020362860512122e+00 0 0 0
135 1 2 1.4564123202300494e-01 5.2200765298654570e+00 2.1314794905828913e+00 9.0089905093506548e+00 0 0 0
136 1 2 1.2578602803538383e-01 4.8023616458894498e+00 1.1067973016948510e+01 1.9679893901730949e+00 0 0 0
137 1 2 1.3786985407613078e-01 1.7724981040438117e+01 5.6486851809654919e+00 1.0588425034695534e+00 0 0 0
138 1 2 1.4383634346843677e-01 1.1097789602787637e+01 5.3366589634985271e+00 9.5580879137657622e+00 0 0 0
139 1 2 1.4229518636283614e-01 1.7536776438177746e+01 5.6853691799157744e+00 6.6749991095302290e+00 0 0 0
140 1 2 1.3873914128862463e-01 2.4246855688876725e+01 5.5881018818882655e+00 4.2520347352143109e+00 0 0 0
141 1 2 1.3931637949421638e-01 1.2084686869605045e+01 1.1227756780135245e+01 3.0951015566333857e+00 0 0 0
142 1 2 1.3671925992295780e-01 1.8081166094307026e+01 1.1161488132118112e+01 7.3353342623414219e+00 0 -1 0
143 1 2 1.3802376312486486e-01 2.3285067507536549e+01 8.2925029855778098e-02 9.0249086937723835e+00 0 0 0
144 1 2 1.3689677479374893e-01 1.9174123975845163e+01 1.1214405929127309e+01 1.6656969276616951e+00 0 0 0
145 1 3 4.1655442800312463e-02 3.9301150452175051e+00 4.7215733601563841e+00 2.7669500194274566e+00 0 0 0
146 1 3 3.9728802341302993e-02 2.4364063830234084e+01 6.8080503311907412e+00 7.9248724072906072e+00 0 0 0
147 1 3 3.9152172602423277e-02 3.0599882346881060e+00 6.6515050367839956e+00 8.7193710490777132e+00 0 0 0
148 1 3 3.5585986673375633e-02 1.1045865161950733e+01 4.6751980897990952e+00 1.7506426529066195e+00 0 0 0
149 1 3 2.7846465226124325e-02 2.6231355982482523e+01 9.0075199802674071e+00 1.4256438819357538e+00 0 0 0
150 1 3 2.8396295415798981e-02 1.8249448629970888e+00 1.9758058621101722e+00 8.8584770389202259e+00 0 0 0
151 1 3 3.4975450608675157e-02 7.1419327868725659e+00 1.3913923101309367e+00 9.5416819993171575e+00 0 0 0
152 1 3 2.6166578940146061e-02 5.0733984224185500e+00 9.4692582500331888e+00 3.3821775818978201e+00 0 0 0
153 1 3 4.2297661928769381e-02 1.8107964669417889e+01 4.8431408015831918e+00 2.9933869119837651e+00 0 0 0
154 1 3 1.9741504773480373e-02 1.0369636321269184e+01 6.1890564740340599e+00 7.7560081864837400e+00 0 0 0
155 1 3 3.3152137130370074e-02 1.7169667505372406e+01 6.0973758643264295e+00 8.7907812203823532e+00 0 0 0
156 1 3 2.8145658014050057e-02 2.5090446464318720e+01 4.9362412633674095e+00 2.2526776158501285e+00 0 0 0
157 1 3 3.6987505488530227e-02 1.2376826035843424e+01 9.4299357588964838e+00 1.8375351090016547e+00 0 0 0
158 1 3 2.8173927194991906e-02 1.5840568312821731e+01 1.5487097737032085e+00 8.5780984845758859e+00 0 0 0
159 1 3 4.1822547902202398e-02 2.2898543054129515e+01 1.9982408046168318e+00 8.0372305684152554e+00 0 0 0
160 1 3 2.9751328362608860e-02 1.9526882802404074e+01 9.4708204501643110e+00 2.9319457297512521e+00 0 0 0
161 1 3 3.2085076325348065e-02 2.1751101579940744e+00 2.9458054608044812e+00 3.7559413044299834e+00 0 0 0
162 1 3 2.5411588055112181e-02 2.6147101646931493e+01 8.2887446522170229e+00 6.6543727505481796e+00 0 0 0
163 1 3 2.5377631097120067e-02 4.6807168974712781e+00 8.1723314874796280e+00 1.0076228000840814e+01 0 0 0
164 1 3 2.7942660279174511e-02 9.3880224245632622e+00 2.8972025924396130e+00 7.6684281796400389e-01 0 0 0
165 1 3 4.2565911004937604e-02 2.8699697726115442e+01 8.4384406912885019e+00 1.5778419294417825e+00 0 0 0
166 1 3 3.3615871863267234e-02 2.7546381763716809e+01 2.7294317066320963e+00 8.7580977481411342e+00 -1 0 0
167 1 3 2.8303073431018209e-02 8.9835032264333687e+00 1.7559840570336152e+00 7.7499106789513288e+00 0 0 0
168 1 3 4.0148618838960953e-02 7.4637706221262343e+00 8.4812806747940819e+00 3.4399013861076559e+00 0 0 0
169 1 3 3.1761085132645965e-02 1.6165676800299750e+01 3.1994227441065992e+00 3.5969674279689432e+00 0 0 0
170 1 3 3.0238870590341121e-02 1.1992278755720871e+01 7.8671648073421236e+00 6.6820795483024984e+00 0 0 0
171 1 3 3.5658738375357900e-02 1.8706484182510337e+01 8.0138980329736818e+00 9.6991321490505733e+00 0 0 0
172 1 3 3.0392446076313549e-02 2.3590574934812143e+01 3.0445965563977104e+00 1.1764029159904745e+00 0 0 0
173 1 3 3.4527649466597345e-02 1.4896458490493616e+01 8.8680165038434033e+00 1.7461513225517766e+00 0 0 0
174 1 3 4.1630865445240202e-02 1.3350130954480651e+01 2.4228708109030679e+00 8.8532898025321263e+00 0 0 0
175 1 3 4.3357149625749394e-02 2.0341412355481769e+01 2.4987415911719082e+00 7.9702398256995011e+00 0 0 0
176 1 3 3.7237578815304338e-02 2.2083206574780490e+01 8.8590397347517040e+00 3.0411092474610357e+00 0 0 0
177 1 3 4.2198819461189710e-02 1.9304515535689974e+00 3.8598827118422605e+00 1.3386643889906022e+00 0 0 0
178 1 3 3.6620044931155407e-02 2.6491114940505451e+01 7.5883557863652520e+00 9.1480779159913688e+00 0 0 0
179 1 3 3.1083947262192501e-02 5.1676496283701390e+00 7.5791546525674232e+00 7.5935824322213019e+00 0 0 0
180 1 3 1.7935846022896600e-02 8.9987728002624081e+00 3.8728261383005744e+00 3.1077657852347329e+00 0 0 0
181 1 3 2.9019240011801527e-02 2.7620049570790826e+01 1.0147877572292465e+01 3.3087017419571074e+00 0 0 0
182 1 3 2.9298908765103437e-02 1.6139692997954080e-01 9.0402530723018693e-01 7.1684026582828215e+00 0 0 0
183 1 3 3.4591038766408143e-02 6.6674513205919466e+00 2.8583467265952840e+00 7.4818174622038853e+00 0 0 0
184 1 3 2.7638287586938131e-02 6.8480770795382977e+00 1.0277911868446672e+01 1.6648723848362295e+00 0 0 0
185 1 3 2.6230327319983766e-02 1.6285110274046939e+01 4.2009730530916176e+00 1.2650369996002608e+00 0 0 0
186 1 3 2.5036551974257103e-02 1.2427165955962128e+01 7.0066250488563089e+00 9.1190025468324034e+00 0 0 0
187 1 3 2.7894614762197151e-02 1.8933168732200979e+01 7.2185855835348933e+00 7.2650236143582383e+00 0 0 0
188 1 3 3.5082365535099580e-02 2.2996193888229861e+01 4.0160210418588509e+00 3.5272257029221068e+00 0 0 0
189 1 3 1.5130538725685889e-02 1.3967674907504062e+01 1.0367487316018860e+01 3.6504786880693656e+00 0 0 0
190 1 3 1.9056872536580057e-02 1.3898889712399653e+01 4.2681898340166524e-01 7.2237844452021358e+00 0 0 0
191 1 3 2.8215734631339293e-02 2.1262329678205919e+01 6.0812504357113917e-01 9.4474749542350800e+00 0 0 0
192 1 3 2.6103869981834539e-02 2.1206346522605262e+01 1.0709848064361633e+01 1.4411771457479317e+00 0 0 0
193 1 3 2.2149143488350453e-01 3.6276332167880492e+00 6.1616973899359024e+00 3.2169682162888527e+00 0 0 0
194 1 3 2.2837920766844441e-01 2.4333662795440382e+01 5.3175783627730961e+00 7.5581099738083370e+00 0 0 0
195 1 3 2.2804298433287939e-01 3.1965923099831639e+00 5.1769750072030307e+00 9.1375443361993458e+00 0 0 0
196 1 3 2.4097671970360948e-01 1.0718027191992784e+01 6.0661885933922006e+00 1.1386497797032140e+00 0 0 0
197 1 3 2.2656771170828255e-01 2.5830011627548629e+01 9.9471619361109411e+00 2.6258811406735860e-01 0 -1 0
198 1 3 2.3799558404381185e-01 2.3429255443025720e+00 1.2018892044656189e+00 1.0124399239228518e+01 0 1 0
199 1 3 2.4034700315714086e-01 6.4543592590085126e+00 5.6866113195966628e-03 9.4212297886218810e+00 0 1 0
200 1 3 2.3447785139650831e-01 4.8489087153789949e+00 1.0355248770821991e+01 4.6246992283533608e+00 0 -1 0
201 1 3 2.2624565841949304e-01 1.7782835533944684e+01 6.2925152482591580e+00 3.4655968457917288e+00 0 0 0
202 1 3 2.1717437781106802e-01 1.0626198298092573e+01 4.7780183870902517e+00 7.1159167502019676e+00 0 0 0
203 1 3 2.2704117048666916e-01 1.7765871006399347e+01 4.7093406793496513e+00 9.1283817431813024e+00 0 0 0
204 1 3 2.1992844409544848e-01 2.4700927548217528e+01 6.2677444706317251e+00 1.5545331410761385e+00 0 0 0
205 1 3 2.3254353637551362e-01 1.1986436309646898e+01 1.0430841943459857e+01 7.3987914676155264e-01 0 -1 0
206 1 3 2.3664608203962212e-01 1.6337036951799817e+01 6.8722234026639872e-01 9.7539795231955804e+00 0 1 0
207 1 3 2.3786849530423770e-01 2.3381388476052290e+01 1.2446303392552827e+00 6.7751238746698617e+00 0 1 0
208 1 3 2.2915451282884053e-01 1.8910296234940631e+01 1.0267327713980443e+01 4.0830179161925928e+00 0 -1 0
209 1 3 2.2624164229004251e-01 1.1565314104695263e+00 3.5043177362214046e+00 4.7389479278001314e+00 0 0 0
210 1 3 2.2440831739751718e-01 2.7069684622821800e+01 7.6842409631882056e+00 5.5480185394417303e+00 0 0 0
211 1 3 2.3214599100911398e-01 5.5616696831751300e+00 7.4413714531134483e+00 1.1124056767473190e+01 0 0 -1
212 1 3 2.2688070805360788e-01 8.4862268535786960e+00 3.6461020905713353e+00 -2.2870751572540127e-01 0 0 1
213 1 3 2.4209113467759025e-01 1.3022019704431183e+00 9.1474474147061926e+00 5.2344810481416348e-01 1 0 1
214 1 3 2.4065474367556691e-01 2.6825421796400512e+01 2.0951080975390144e+00 9.9698178123935808e+00 -1 0 -1
215 1 3 2.3118562484143204e-01 9.2157578315141553e+00 5.6587285542245580e-01 6.7699605109023615e+00 0 0 0
216 1 3 2.4303289524781979e-01 8.4206766822692813e+00 9.0457393788907261e+00 4.5575837917177351e+00 0 0 0
217 1 3 2.3906212608802813e-01 1.5036318864492788e+01 3.6515929894104819e+00 4.5624780825609763e+00 0 0 0
218 1 3 2.3429866514342609e-01 1.2840010319282539e+01 7.2386895186956561e+00 5.5382111197994313e+00 0 0 0
219 1 3 2.3633981173089075e-01 1.9859164611090886e+01 7.6125111353222001e+00 1.0648835123311423e+01 0 0 -1
220 1 3 2.2745759638768334e-01 2.2663180781588480e+01 3.5359548584083438e+00 6.6917504615293666e-02 0 0 1
221 1 3 2.3924537643491584e-01 1.5677743284648011e+01 9.6972661748050939e+00 6.9495659582668079e-01 0 0 1
222 1 3 2.4236359372699745e-01 1.2693478854706962e+01 1.8787821629949528e+00 1.0131497753124965e+01 0 0 -1
223 1 3 2.4523667091937995e-01 1.9752373965980976e+01 1.7070250057309511e+00 6.7995257219277851e+00 0 0 0
224 1 3 2.3989938701803698e-01 2.2827956799829447e+01 9.4107227942617584e+00 4.2728417957327922e+00 0 0 0
225 1 3 2.3815223547900558e-01 8.4064286237151764e-01 4.9614176913497730e+00 1.2440348970205335e+00 1 0 0
226 1 3 2.2890890304138412e-01 2.7551820286905521e+01 6.4895607536155069e+00 9.2853345833766561e+00 -1 0 0
227 1 3 2.2385159535778357e-01 6.1780086285485760e+00 6.4212791095153410e+00 7.4785848617344826e+00 0 0 0
228 1 3 2.3127901943967166e-01 7.8476988480571768e+00 4.8948968453458539e+00 3.1038718378247019e+00 0 0 0
229 1 3 2.3790585172271747e-01 2.5850771742532810e+01 2.4298868149718605e-01 2.9882034049534805e+00 -1 1 0
230 1 3 2.3640740323242687e-01 1.7958179201276421e+00 1.0861413646551188e+01 7.4687348652073382e+00 1 -1 0
231 1 3 2.4071623179523410e-01 5.8056072908190064e+00 1.9991535907782372e+00 6.5129188809726566e+00 0 0 0
232 1 3 2.4183116276594549e-01 5.2471506944913884e+00 3.2031978929628618e-01 2.0428034858994812e+00 0 1 0
233 1 3 2.2894197217137352e-01 1.5346422370887346e+01 5.3829533042318563e+00 8.8186758227160800e-01 0 0 0
234 1 3 2.2916207735623467e-01 1.3526890385554339e+01 5.9921659740254718e+00 9.4385835216091287e+00 0 0 0
235 1 3 2.3322963329918941e-01 2.0000208941293042e+01 6.1173096363961248e+00 7.0304496032498607e+00 0 0 0
236 1 3 2.3691200716970390e-01 2.1865878505764851e+01 5.0832538365063771e+00 3.5731305774850135e+00 0 0 0
237 1 3 2.2836701637511081e-01 1.2208505338332390e+01 4.9442078055551053e-01 3.5988232256230583e+00 0 1 0
238 1 3 2.3577656402461600e-01 1.5625550858632087e+01 1.0408453543577291e+01 7.7564982987995492e+00 0 -1 0
239 1 3 2.4690169522728503e-01 2.3051553589879365e+01 1.0594701333958252e+01 8.8491609306834143e+00 0 -1 0
240 1 3 2.4015448477171045e-01 1.9386894660045549e+01 7.5578577893662147e-01 2.0361078174699108e+00 0 1 0
241 1 4 -2.5523921462206400e-01 3.4150444397693871e+00 7.0786453793218120e+00 2.3058352480434801e+00 0 0 0
242 1 4 -2.5591859800205907e-01 2.4261030533453042e+01 4.3864386208326351e+00 8.4187248726107047e+00 0 0 0
243 1 4 -2.6516165571053596e-01 3.5537856053804653e+00 4.2916853355970073e+00 8.2681175216165617e+00 0 0 0
244 1 4 -2.5024905465774033e-01 1.0663691634396717e+01 7.0760393762718765e+00 1.9367520247050383e+00 0 0 0
245 1 4 -2.7683727034854311e-01 2.5205515518739876e+01 1.1020880218834975e+01 4.8494078041571620e-01 0 -1 0
246 1 4 -2.5572149984808595e-01 2.6197183084188778e+00 -4.6905945336411320e-02 9.9999854075921260e+00 0 1 0
247 1 4 -2.2810764421813112e-01 5.1775924202818384e+00 -4.0570431962546866e-02 9.6306202364657949e+00 0 1 0
248 1 4 -2.6601985430052411e-01 2.2912801341014370e+00 2.0443613967534988e-01 4.3728947860398186e+00 0 0 0
249 1 4 -2.6967230316390217e-01 1.7963038833333108e+01 7.2887927252231082e+00 2.6928869442466632e+00 0 0 0
250 1 4 -2.8202353867471591e-01 1.0939069029794640e+01 3.7916914942254798e+00 7.8885886036508701e+00 0 0 0
251 1 4 -2.6312903061151505e-01 1.7657457660812447e+01 3.8295190602903677e+00 8.2126137256772846e+00 0 0 0
252 1 4 -2.7428869426350555e-01 2.4560811869611495e+01 7.3444995366880494e+00 2.2660098983618782e+00 0 0 0
253 1 4 -2.7428112138987681e-01 9.2248927736890813e+00 1.7166738825817041e-01 1.0429515406021983e+00 0 0 0
254 1 4 -2.6280636195076507e-01 1.8623599568487375e+01 1.0784238320790575e+01 9.6384415263280285e+00 0 0 0
255 1 4 -2.5239287009015987e-01 2.4060755928762770e+01 1.6007115185068052e-01 6.9218035735563435e+00 0 1 0
256 1 4 -2.5944710780523067e-01 1.6382243673632441e+01 1.4990148084754751e-01 3.9090155157787194e+00 0 0 0
257 1 4 -2.6963196223860258e-01 3.4057418002823807e+00 6.4795982190565944e+00 4.4277936057458502e+00 0 0 0
258 1 4 -2.7853639646446759e-01 2.4271766195690489e+01 4.9955007890361802e+00 6.3013579255906063e+00 0 0 0
259 1 4 -2.6743042005121731e-01 3.0675826242782169e+00 4.8596524754980539e+00 1.0374437393714924e+01 0 0 0
260 1 4 -2.5417939180221050e-01 1.0725611773470824e+01 6.2534782641197717e+00 -1.1590575364915046e-01 0 0 0
261 1 4 -2.6963476930475638e-01 2.5629552038437069e+01 9.1983220342130600e+00 1.0942312292947955e+01 0 -1 -1
262 1 4 -2.6256942816951118e-01 2.2191864567612551e+00 1.7843166271706041e+00 1.1252373257331014e+01 0 1 0
263 1 4 -2.3710302045631754e-01 9.3201357713733302e+00 1.0340460323310630e+01 9.0451205534342556e+00 0 0 0
264 1 4 -2.5848254879895061e-01 4.9219583684675881e+00 9.8752351548249102e+00 5.8144517902103807e+00 0 -1 0
265 1 4 -2.6123310154976676e-01 1.7016849200659351e+01 6.4302158716910149e+00 4.4903001261114817e+00 0 0 0
266 1 4 -2.8323230800371496e-01 1.0619092914794109e+01 4.6655344513412436e+00 5.8515467099984138e+00 0 0 0
267 1 4 -2.5660473646079146e-01 1.8312672752218607e+01 4.3912224023290181e+00 1.0245234185383159e+01 0 0 0
268 1 4 -2.6988106141143364e-01 2.4676435446360234e+01 6.4117370709654979e+00 2.8297531011837074e-01 0 0 0
269 1 4 -2.5020556968436380e-01 1.2084093363580065e+01 1.0014193910396994e+01 -4.6253334745827313e-01 0 -1 0
270 1 4 -2.4870415647702704e-01 1.6702679464202401e+01 1.3178581249615033e+00 1.0822498671491440e+01 0 1 0
271 1 4 -2.4500420343407966e-01 2.3310539456234899e+01 1.8556966735543263e+00 5.6565440413194805e+00 0 1 0
272 1 4 -2.6352244708955808e-01 1.8779948202361226e+01 9.7183165218624765e+00 5.2255418844766846e+00 0 -1 0
273 1 4 -2.5224777971707874e-01 -8.2817115242574513e-02 3.1974277239660398e+00 4.5633161319333286e+00 1 0 0
274 1 4 -2.5198134274296108e-01 2.8336480475646539e+01 7.6231269567425892e+00 5.6899187091622965e+00 -1 0 0
275 1 4 -2.3788893750465007e-01 6.8324580339615881e+00 7.5556790002140808e+00 1.1009315814475293e+01 0 0 -1
276 1 4 -2.5056217095255279e-01 7.2155805935294728e+00 3.5593895068336128e+00 -1.4373086328195206e-01 0 0 1
277 1 4 -2.5957105817203041e-01 2.3745639799572267e+00 9.7509385729464739e+00 8.9697109462688518e-01 0 0 1
278 1 4 -2.5760806716393053e-01 2.5760722202122896e+01 1.4087273775902260e+00 9.7599028193206614e+00 0 0 -1
279 1 4 -2.5140859896363127e-01 9.0340425733395211e+00 6.5865216019176986e-01 5.5081601135810150e+00 0 0 0