ITEM: TIMESTEP
0
ITEM: NUMBER OF ATOMS
336
ITEM: BOX BOUNDS xy xz yz pp pp pp
0.0000000000000000e+00 2.6364000320399999e+01 0.0000000000000000e+00
0.0000000000000000e+00 1.1574000358599999e+01 0.0000000000000000e+00
0.0000000000000000e+00 1.0708999633800000e+01 0.0000000000000000e+00
ITEM: ATOMS id type xs ys zs
1 1 0.0944878 0.358229 0.444995
2 1 0.905512 0.641771 0.555005
3 1 0.155512 0.641771 0.944995
4 1 0.344488 0.358229 0.0550046
5 1 0.905512 0.858229 0.0550046
6 1 0.0944878 0.141771 0.944995
7 1 0.344488 0.141771 0.555005
8 1 0.155512 0.858229 0.444995
9 1 0.594488 0.358229 0.444995
10 1 0.405512 0.641771 0.555005
11 1 0.655512 0.641771 0.944995
12 1 0.844488 0.358229 0.0550046
13 1 0.405512 0.858229 0.0550046
14 1 0.594488 0.141771 0.944995
15 1 0.844488 0.141771 0.555005
16 1 0.655512 0.858229 0.444995
17 1 0.0239178 0.235855 0.339303
18 1 0.976082 0.764145 0.660697
19 1 0.226082 0.764145 0.839303
20 1 0.273918 0.235855 0.160697
21 1 0.976082 0.735855 0.160697
22 1 0.0239178 0.264145 0.839303
23 1 0.273918 0.264145 0.660697
24 1 0.226082 0.735855 0.339303
25 1 0.523918 0.235855 0.339303
26 1 0.476082 0.764145 0.660697
27 1 0.726082 0.764145 0.839303
28 1 0.773918 0.235855 0.160697
29 1 0.476082 0.735855 0.160697
30 1 0.523918 0.264145 0.839303
31 1 0.773918 0.264145 0.660697
32 1 0.726082 0.735855 0.339303
33 1 0.0765984 0.381663 0.208682
34 1 0.923402 0.618337 0.791318
35 1 0.173402 0.618337 0.708682
36 1 0.326598 0.381663 0.291318
37 1 0.923402 0.881663 0.291318
38 1 0.0765985 0.118337 0.708682
39 1 0.326598 0.118337 0.791318
40 1 0.173402 0.881663 0.208682
41 1 0.576598 0.381663 0.208682
42 1 0.423402 0.618337 0.791318
43 1 0.673402 0.618337 0.708682
44 1 0.826598 0.381663 0.291318
45 1 0.423402 0.881663 0.291318
46 1 0.576598 0.118337 0.708682
47 1 0.826598 0.118337 0.791318
48 1 0.673402 0.881663 0.208682
49 2 0.122694 0.291631 0.423068
50 2 0.877306 0.708369 0.576932
51 2 0.127306 0.708369 0.923068
52 2 0.372694 0.291631 0.076932
53 2 0.877306 0.791631 0.076932
54 2 0.122694 0.208369 0.923068
55 2 0.372694 0.208369 0.576932
56 2 0.127306 0.791631 0.423068
57 2 0.622694 0.291631 0.423068
58 2 0.377306 0.708369 0.576932
59 2 0.627306 0.708369 0.923068
60 2 0.872694 0.291631 0.076932
61 2 0.377306 0.791631 0.0769319
62 2 0.622694 0.208369 0.923068
63 2 0.872694 0.208369 0.576932
64 2 0.627306 0.791631 0.423068
65 2 0.101949 0.408925 0.529769
66 2 0.898051 0.591075 0.470231
67 2 0.148051 0.591075 0.0297687
68 2 0.351949 0.408925 0.970231
69 2 0.898051 0.908925 0.970231
70 2 0.101949 0.0910753 0.0297687
71 2 0.351949 0.0910753 0.470231
72 2 0.148051 0.908925 0.529769
73 2 0.601949 0.408925 0.529769
74 2 0.398051 0.591075 0.470231
75 2 0.648051 0.591075 0.0297687
76 2 0.851949 0.408925 0.970231
77 2 0.398051 0.908925 0.970231
78 2 0.601949 0.0910753 0.0297687
79 2 0.851949 0.0910753 0.470231
80 2 0.648051 0.908925 0.529769
81 2 0.984646 0.20786 0.354549
82 2 0.015354 0.79214 0.645451
83 2 0.265354 0.79214 0.854549
84 2 0.234646 0.20786 0.145451
85 2 0.015354 0.70786 0.145451
86 2 0.984646 0.29214 0.854549
87 2 0.234646 0.29214 0.645451
88 2 0.265354 0.70786 0.354549
89 2 0.484646 0.20786 0.354549
90 2 0.515354 0.79214 0.645451
91 2 0.765354 0.79214 0.854549
92 2 0.734646 0.20786 0.145451
93 2 0.515354 0.70786 0.145451
94 2 0.484646 0.29214 0.854549
95 2 0.734646 0.29214 0.645451
96 2 0.765354 0.70786 0.354549
97 2 0.0511425 0.167554 0.318297
98 2 0.948858 0.832446 0.681703
99 2 0.198858 0.832446 0.818297
100 2 0.301142 0.167554 0.181703
101 2 0.948858 0.667554 0.181703
102 2 0.0511425 0.332446 0.818297
103 2 0.301142 0.332446 0.681703
104 2 0.198858 0.667554 0.318297
105 2 0.551142 0.167554 0.318297
106 2 0.448858 0.832446 0.681703
107 2 0.698858 0.832446 0.818297
108 2 0.801142 0.167554 0.181703
109 2 0.448858 0.667554 0.181703
110 2 0.551142 0.332446 0.818297
111 2 0.801142 0.332446 0.681703
112 2 0.698858 0.667554 0.318297
113 2 0.10457 0.314701 0.188899
114 2 0.89543 0.685299 0.811101
115 2 0.14543 0.685299 0.688899
116 2 0.35457 0.314701 0.311101
117 2 0.89543 0.814701 0.311101
118 2 0.10457 0.185299 0.688899
119 2 0.35457 0.185299 0.811101
120 2 0.14543 0.814701 0.188899
121 2 0.60457 0.314701 0.188899
122 2 0.39543 0.685299 0.811101
123 2 0.64543 0.685299 0.688899
124 2 0.85457 0.314701 0.311101
125 2 0.39543 0.814701 0.311101
126 2 0.60457 0.185299 0.688899
127 2 0.85457 0.185299 0.811101
128 2 0.64543 0.814701 0.188899
129 2 0.0723516 0.447265 0.135229
130 2 0.927648 0.552735 0.864771
131 2 0.177648 0.552735 0.635229
132 2 0.322352 0.447265 0.364771
133 2 0.927648 0.947265 0.364771
134 2 0.0723516 0.0527353 0.635229
135 2 0.322352 0.0527353 0.864771
136 2 0.177648 0.947265 0.135229
137 2 0.572352 0.447265 0.135229
138 2 0.427648 0.552735 0.864771
139 2 0.677648 0.552735 0.635229
140 2 0.822352 0.447265 0.364771
141 2 0.427648 0.947265 0.364771
142 2 0.572352 0.0527353 0.635229
143 2 0.822352 0.0527353 0.864771
144 2 0.677648 0.947265 0.135229
145 3 0.0873298 0.434018 0.333918
146 3 0.91267 0.565982 0.666082
147 3 0.16267 0.565982 0.833918
148 3 0.33733 0.434018 0.166082
149 3 0.91267 0.934018 0.166082
150 3 0.0873298 0.0659823 0.833918
151 3 0.33733 0.0659823 0.666082
152 3 0.16267 0.934018 0.333918
153 3 0.58733 0.434018 0.333918
154 3 0.41267 0.565982 0.666082
155 3 0.66267 0.565982 0.833918
156 3 0.83733 0.434018 0.166082
157 3 0.41267 0.934018 0.166082
158 3 0.58733 0.0659823 0.833918
159 3 0.83733 0.0659823 0.666082
160 3 0.66267 0.934018 0.333918
161 3 0.0464084 0.284592 0.46221
162 3 0.953592 0.715408 0.53779
163 3 0.203592 0.715408 0.96221
164 3 0.296408 0.284592 0.0377899
165 3 0.953592 0.784592 0.0377899
166 3 0.0464084 0.215408 0.96221
167 3 0.296408 0.215408 0.53779
168 3 0.203592 0.784592 0.46221
169 3 0.546408 0.284592 0.46221
170 3 0.453592 0.715408 0.53779
171 3 0.703592 0.715408 0.96221
172 3 0.796408 0.284592 0.0377899
173 3 0.453592 0.784592 0.0377899
174 3 0.546408 0.215408 0.96221
175 3 0.796408 0.215408 0.53779
176 3 0.703592 0.784592 0.46221
177 3 0.0274491 0.309971 0.219523
178 3 0.972551 0.690029 0.780477
179 3 0.222551 0.690029 0.719523
180 3 0.277449 0.309971 0.280477
181 3 0.972551 0.809971 0.280477
182 3 0.0274491 0.190029 0.719523
183 3 0.277449 0.190029 0.780477
184 3 0.222551 0.809971 0.219523
185 3 0.527449 0.309971 0.219523
186 3 0.472551 0.690029 0.780477
187 3 0.722551 0.690029 0.719523
188 3 0.777449 0.309971 0.280477
189 3 0.472551 0.809971 0.280477
190 3 0.527449 0.190029 0.719523
191 3 0.777449 0.190029 0.780477
192 3 0.722551 0.809971 0.219523
193 3 0.114844 0.545122 0.334628
194 3 0.885156 0.454879 0.665372
195 3 0.135156 0.454879 0.834628
196 3 0.364844 0.545122 0.165372
197 3 0.885156 0.0451219 0.165372
198 3 0.114844 0.954879 0.834628
199 3 0.364844 0.954879 0.665372
200 3 0.135156 0.0451215 0.334628
201 3 0.614844 0.545122 0.334628
202 3 0.385156 0.454879 0.665372
203 3 0.635156 0.454879 0.834628
204 3 0.864844 0.545122 0.165372
205 3 0.385156 0.0451219 0.165372
206 3 0.614844 0.954879 0.834628
207 3 0.864844 0.954879 0.665372
208 3 0.635156 0.0451217 0.334628
209 3 0.00602018 0.355087 0.532646
210 3 0.99398 0.644913 0.467354
211 3 0.24398 0.644913 0.0326457
212 3 0.25602 0.355087 0.967354
213 3 0.99398 0.855087 0.967354
214 3 0.00602017 0.144913 0.0326457
215 3 0.25602 0.144913 0.467354
216 3 0.24398 0.855087 0.532646
217 3 0.50602 0.355087 0.532646
218 3 0.49398 0.644913 0.467354
219 3 0.74398 0.644913 0.0326457
220 3 0.75602 0.355087 0.967354
221 3 0.49398 0.855087 0.967354
222 3 0.50602 0.144913 0.0326457
223 3 0.75602 0.144913 0.467354
224 3 0.74398 0.855087 0.532646
225 3 0.981238 0.390296 0.206534
226 3 0.0187619 0.609703 0.793466
227 3 0.268762 0.609703 0.706534
228 3 0.231238 0.390296 0.293466
229 3 0.0187619 0.890296 0.293466
230 3 0.981238 0.109703 0.706534
231 3 0.231238 0.109703 0.793466
232 3 0.268762 0.890296 0.206534
233 3 0.481238 0.390296 0.206534
234 3 0.518762 0.609704 0.793466
235 3 0.768762 0.609704 0.706534
236 3 0.731238 0.390296 0.293466
237 3 0.518762 0.890296 0.293466
238 3 0.481238 0.109704 0.706534
239 3 0.731238 0.109704 0.793466
240 3 0.768762 0.890296 0.206534
241 4 0.114742 0.602359 0.231579
242 4 0.885258 0.397641 0.768421
243 4 0.135258 0.397641 0.731579
244 4 0.364742 0.602359 0.268421
245 4 0.885258 0.102359 0.268421
246 4 0.114742 0.897641 0.731579
247 4 0.364742 0.897641 0.768421
248 4 0.135258 0.102359 0.231579
249 4 0.614742 0.602359 0.231579
250 4 0.385258 0.397641 0.768421
251 4 0.635258 0.397641 0.731579
252 4 0.864742 0.602359 0.268421
253 4 0.385258 0.102359 0.268421
254 4 0.614742 0.897641 0.731579
255 4 0.864742 0.897641 0.768421
256 4 0.635258 0.102359 0.231579
257 4 0.134833 0.575301 0.440541
258 4 0.865167 0.424699 0.559458
259 4 0.115167 0.424699 0.940542
260 4 0.384833 0.5753 0.0594589
261 4 0.865167 0.0753004 0.0594592
262 4 0.134833 0.924699 0.940542
263 4 0.384833 0.924699 0.559458
264 4 0.115167 0.0753005 0.440541
265 4 0.634833 0.575301 0.440541
266 4 0.365167 0.424699 0.559458
267 4 0.615167 0.424699 0.940542
268 4 0.884833 0.5753 0.0594592
269 4 0.365167 0.0753004 0.0594592
270 4 0.634833 0.924699 0.940542
271 4 0.884833 0.924699 0.559458
272 4 0.615167 0.0753005 0.440541
273 4 0.96074 0.314073 0.529646
274 4 0.0392603 0.685927 0.470354
275 4 0.28926 0.685927 0.0296462
276 4 0.21074 0.314073 0.970354
277 4 0.0392603 0.814073 0.970354
278 4 0.96074 0.185927 0.0296463
279 4 0.21074 0.185927 0.470354
280 4 0.28926 0.814073 0.529646
281 4 0.46074 0.314073 0.529646
282 4 0.53926 0.685927 0.470354
283 4 0.78926 0.685927 0.0296462
284 4 0.71074 0.314073 0.970354
285 4 0.53926 0.814073 0.970354
286 4 0.46074 0.185927 0.0296462
287 4 0.71074 0.185927 0.470354
288 4 0.78926 0.814073 0.529646
289 4 0.0219129 0.434122 0.607328
290 4 0.978087 0.565878 0.392672
291 4 0.228087 0.565878 0.107328
292 4 0.271913 0.434122 0.892672
293 4 0.978087 0.934122 0.892672
294 4 0.0219129 0.0658781 0.107328
295 4 0.271913 0.0658781 0.392671
296 4 0.228087 0.934122 0.607328
297 4 0.521913 0.434122 0.607329
298 4 0.478087 0.565878 0.392672
299 4 0.728087 0.565878 0.107329
300 4 0.771913 0.434122 0.892671
301 4 0.478087 0.934122 0.892672
302 4 0.521913 0.0658781 0.107329
303 4 0.771913 0.0658781 0.392671
304 4 0.728087 0.934122 0.607329
305 4 0.93913 0.353956 0.252099
306 4 0.0608696 0.646044 0.747901
307 4 0.31087 0.646044 0.752099
308 4 0.18913 0.353956 0.247901
309 4 0.0608696 0.853956 0.247901
310 4 0.93913 0.146044 0.752099
311 4 0.18913 0.146044 0.747901
312 4 0.31087 0.853956 0.252099
313 4 0.43913 0.353956 0.252099
314 4 0.56087 0.646044 0.747901
315 4 0.81087 0.646044 0.752099
316 4 0.68913 0.353956 0.247901
317 4 0.56087 0.853956 0.247901
318 4 0.43913 0.146044 0.752099
319 4 0.68913 0.146044 0.747901
320 4 0.81087 0.853956 0.252099
321 4 0.986501 0.477489 0.133328
322 4 0.0134994 0.522511 0.866672
323 4 0.263499 0.522511 0.633328
324 4 0.236501 0.477489 0.366672
325 4 0.0134994 0.977489 0.366672
326 4 0.986501 0.0225111 0.633328
327 4 0.236501 0.0225111 0.866672
328 4 0.263499 0.977489 0.133328
329 4 0.486501 0.477489 0.133328
330 4 0.513499 0.522511 0.866672
331 4 0.763499 0.522511 0.633328
332 4 0.736501 0.477489 0.366672
333 4 0.513499 0.977489 0.366672
334 4 0.486501 0.0225111 0.633328
335 4 0.736501 0.0225111 0.866672
336 4 0.763499 0.977489 0.133328
ITEM: TIMESTEP
1000
ITEM: NUMBER OF ATOMS
336
ITEM: BOX BOUNDS xy xz yz pp pp pp
-6.1008706983991046e-01 2.6884362011791808e+01 -6.5794774393476169e-02
-1.5622032062124314e-01 1.1635444801219608e+01 -2.3930604054680421e-02
-4.0286825231001266e-01 1.1111867886110016e+01 -9.4775878001635686e-02
ITEM: ATOMS id type xs ys zs
1 1 0.087268 0.405059 0.448951
2 1 0.90018 0.635684 0.555815
3 1 0.172255 0.613297 0.963776
4 1 0.338811 0.375592 0.0625069
5 1 0.908402 0.864388 0.0373524
6 1 0.0930818 0.127303 0.927938
7 1 0.34537 0.107803 0.557794
8 1 0.155649 0.89743 0.448443
9 1 0.589015 0.39185 0.443362
10 1 0.409654 0.614643 0.553069
11 1 0.655008 0.649853 0.932504
12 1 0.836992 0.385187 0.0602271
13 1 0.411072 0.877634 0.0441173
14 1 0.585338 0.111884 0.968986
15 1 0.851293 0.154111 0.550554
16 1 0.647605 0.858013 0.443751
17 1 0.0281415 0.268943 0.342001
18 1 0.969766 0.741723 0.653543
19 1 0.228443 0.757938 0.863964
20 1 0.274103 0.254634 0.16388
21 1 0.974011 0.750621 0.146616
22 1 0.0312899 0.253637 0.827294
23 1 0.281845 0.244229 0.642058
24 1 0.213571 0.76361 0.344612
25 1 0.531642 0.257985 0.330327
26 1 0.472363 0.733851 0.663574
27 1 0.729184 0.751925 0.848238
28 1 0.781411 0.248524 0.165302
29 1 0.463485 0.755375 0.167543
30 1 0.527003 0.248046 0.87066
31 1 0.777213 0.247696 0.655124
32 1 0.714606 0.743126 0.341152
33 1 0.0809693 0.409032 0.228291
34 1 0.930356 0.582266 0.765504
35 1 0.17653 0.625765 0.737994
36 1 0.324624 0.385312 0.283199
37 1 0.91394 0.871614 0.260456
38 1 0.0727742 0.100853 0.708313
39 1 0.334658 0.132103 0.779973
40 1 0.174312 0.928315 0.231899
41 1 0.573186 0.419422 0.22499
42 1 0.43032 0.562591 0.763181
43 1 0.675818 0.633322 0.713025
44 1 0.821148 0.412474 0.281465
45 1 0.414513 0.906776 0.270842
46 1 0.583935 0.130353 0.744005
47 1 0.839033 0.121809 0.76885
48 1 0.666477 0.886655 0.229178
49 2 0.118356 0.363206 0.498935
50 2 0.870951 0.699935 0.549705
51 2 0.140541 0.646228 0.0191624
52 2 0.369953 0.335173 0.0103165
53 2 0.885221 0.785164 0.0304151
54 2 0.125163 0.174422 0.974449
55 2 0.377363 0.163916 0.536684
56 2 0.124203 0.838634 0.473354
57 2 0.62176 0.369915 0.49705
58 2 0.377005 0.669188 0.530164
59 2 0.629088 0.721284 0.933528
60 2 0.871375 0.349395 0.0194465
61 2 0.379347 0.845131 0.990368
62 2 0.615939 0.169535 0.00585413
63 2 0.877261 0.230277 0.558654
64 2 0.616758 0.793538 0.454582
65 2 0.0849738 0.475127 0.509999
66 2 0.893966 0.577131 0.477377
67 2 0.181969 0.538689 0.0160832
68 2 0.331992 0.452805 0.0058411
69 2 0.893036 0.907166 0.958411
70 2 0.0909047 0.0520786 0.985918
71 2 0.352144 0.0341103 0.49465
72 2 0.156375 0.962894 0.521462
73 2 0.576437 0.467466 0.496183
74 2 0.412108 0.550564 0.477719
75 2 0.641831 0.591198 0.00470679
76 2 0.832403 0.456429 0.996491
77 2 0.425632 0.952192 0.990768
78 2 0.587701 0.046308 0.0403026
79 2 0.860196 0.100549 0.46903
80 2 0.643154 0.919451 0.516463
81 2 0.989759 0.243667 0.360183
82 2 0.00833186 0.755362 0.626922
83 2 0.266838 0.785358 0.870624
84 2 0.233633 0.23908 0.14627
85 2 0.0151742 0.754036 0.147159
86 2 0.992515 0.285761 0.845529
87 2 0.243576 0.269359 0.619258
88 2 0.254553 0.745079 0.354473
89 2 0.492434 0.228802 0.334524
90 2 0.512256 0.753607 0.651085
91 2 0.767809 0.754624 0.875537
92 2 0.742632 0.210427 0.160322
93 2 0.502575 0.756013 0.155576
94 2 0.487733 0.268297 0.86922
95 2 0.736553 0.230513 0.643408
96 2 0.754742 0.732212 0.355369
97 2 0.0503127 0.185912 0.325702
98 2 0.950979 0.822416 0.673839
99 2 0.203219 0.832092 0.865696
100 2 0.2913 0.17008 0.17427
101 2 0.959504 0.659003 0.155959
102 2 0.0551823 0.329838 0.809705
103 2 0.304159 0.328378 0.650687
104 2 0.192998 0.681103 0.331823
105 2 0.556132 0.184917 0.305069
106 2 0.450431 0.812509 0.688335
107 2 0.719087 0.843979 0.840449
108 2 0.807395 0.179194 0.183685
109 2 0.452992 0.661041 0.1757
110 2 0.552626 0.321441 0.86518
111 2 0.779306 0.344232 0.667681
112 2 0.700351 0.652617 0.320751
113 2 0.10581 0.360832 0.16374
114 2 0.916414 0.576311 0.8567
115 2 0.149779 0.689076 0.704021
116 2 0.348201 0.33955 0.344894
117 2 0.889008 0.803552 0.297935
118 2 0.0970585 0.136053 0.638941
119 2 0.358633 0.201323 0.813967
120 2 0.151438 0.913838 0.150989
121 2 0.595693 0.397761 0.147313
122 2 0.412381 0.554676 0.853974
123 2 0.653396 0.705186 0.676176
124 2 0.843158 0.406314 0.362644
125 2 0.391897 0.907019 0.353585
126 2 0.610831 0.199869 0.719452
127 2 0.863551 0.192289 0.804048
128 2 0.642099 0.853884 0.158953
129 2 0.0772832 0.482801 0.170748
130 2 0.955641 0.502915 0.766698
131 2 0.173477 0.558679 0.664067
132 2 0.316888 0.461804 0.334025
133 2 0.918602 0.942094 0.323326
134 2 0.0640227 0.0165815 0.659746
135 2 0.331822 0.0696745 0.854626
136 2 0.189012 0.0154483 0.211968
137 2 0.559326 0.501241 0.19002
138 2 0.450062 0.479834 0.761932
139 2 0.674567 0.564321 0.645804
140 2 0.804179 0.498089 0.300416
141 2 0.434487 0.986327 0.289552
142 2 0.578188 0.0769097 0.659274
143 2 0.841929 0.0520808 0.837553
144 2 0.675611 0.969853 0.188025
145 3 0.10646 0.444232 0.334189
146 3 0.894433 0.568535 0.668833
147 3 0.152929 0.580741 0.847306
148 3 0.356497 0.414023 0.180596
149 3 0.89163 0.913957 0.150945
150 3 0.105345 0.0765728 0.812004
151 3 0.35815 0.0725564 0.679303
152 3 0.14138 0.950956 0.337348
153 3 0.605031 0.440496 0.329064
154 3 0.396147 0.550182 0.662596
155 3 0.647568 0.593035 0.815419
156 3 0.853396 0.430791 0.177667
157 3 0.3889 0.924216 0.155656
158 3 0.603727 0.0730155 0.850493
159 3 0.860183 0.0817743 0.655709
160 3 0.638179 0.92401 0.334582
161 3 0.0456191 0.32115 0.453174
162 3 0.94555 0.701032 0.542194
163 3 0.214433 0.695766 0.972784
164 3 0.295789 0.295567 0.0534785
165 3 0.955951 0.801352 0.0356652
166 3 0.0500452 0.204382 0.941005
167 3 0.302622 0.184822 0.537261
168 3 0.198259 0.817365 0.455705
169 3 0.549749 0.303751 0.444171
170 3 0.453488 0.691915 0.550041
171 3 0.704316 0.706487 0.953616
172 3 0.796616 0.296555 0.0540093
173 3 0.449842 0.791564 0.0466077
174 3 0.541597 0.186203 0.978534
175 3 0.802262 0.211984 0.543025
176 3 0.693995 0.790125 0.453821
177 3 0.0335929 0.336696 0.232997
178 3 0.96795 0.675247 0.76317
179 3 0.222921 0.695856 0.751174
180 3 0.278501 0.318152 0.275078
181 3 0.962297 0.809699 0.256539
182 3 0.0295738 0.17349 0.723693
183 3 0.286239 0.190425 0.758228
184 3 0.213717 0.842664 0.240543
185 3 0.532034 0.334286 0.226737
186 3 0.467608 0.65581 0.768628
187 3 0.724102 0.688045 0.734866
188 3 0.782867 0.322534 0.27597
189 3 0.456506 0.824351 0.275215
190 3 0.536496 0.188439 0.754098
191 3 0.790319 0.182397 0.762291
192 3 0.711654 0.813028 0.234172
193 3 0.119007 0.573305 0.334573
194 3 0.878438 0.442867 0.660742
195 3 0.13497 0.454745 0.844234
196 3 0.369678 0.540877 0.180114
197 3 0.890294 0.0474151 0.151404
198 3 0.121146 0.949887 0.817396
199 3 0.363628 0.941949 0.693274
200 3 0.126762 0.0795477 0.344522
201 3 0.619051 0.567957 0.340935
202 3 0.383133 0.42334 0.638828
203 3 0.641133 0.459627 0.822122
204 3 0.868743 0.557754 0.169014
205 3 0.374482 0.0494578 0.144778
206 3 0.609719 0.942017 0.838976
207 3 0.863863 0.949766 0.6259
208 3 0.627616 0.0532642 0.338628
209 3 0.00257914 0.35886 0.532734
210 3 0.983045 0.638439 0.462804
211 3 0.261551 0.650699 0.0301826
212 3 0.255384 0.338359 0.968975
213 3 0.996234 0.865165 0.968484
214 3 0.00845473 0.167103 0.0217252
215 3 0.263504 0.132998 0.455402
216 3 0.243445 0.861555 0.526007
217 3 0.506768 0.329071 0.529565
218 3 0.497465 0.635998 0.485944
219 3 0.740617 0.632985 0.0222268
220 3 0.75165 0.335555 0.98257
221 3 0.496386 0.842402 0.989581
222 3 0.495686 0.124723 0.0319341
223 3 0.768615 0.138553 0.466154
224 3 0.734078 0.848744 0.529698
225 3 0.987358 0.399245 0.201982
226 3 0.0197153 0.623078 0.781713
227 3 0.269566 0.634694 0.7083
228 3 0.230556 0.382543 0.304009
229 3 0.00496654 0.889676 0.296567
230 3 0.977479 0.118467 0.707803
231 3 0.241036 0.114829 0.783287
232 3 0.265028 0.890306 0.199031
233 3 0.481097 0.386171 0.2001
234 3 0.516429 0.60872 0.810999
235 3 0.769243 0.60748 0.719118
236 3 0.730909 0.364951 0.303803
237 3 0.503667 0.890987 0.31031
238 3 0.49155 0.114656 0.716647
239 3 0.748501 0.0974601 0.786935
240 3 0.760185 0.875974 0.217629
241 4 0.126991 0.623497 0.24018
242 4 0.886356 0.373116 0.743514
243 4 0.134496 0.401087 0.745051
244 4 0.362457 0.603996 0.269812
245 4 0.888221 0.10168 0.247273
246 4 0.130024 0.891817 0.724943
247 4 0.366998 0.895893 0.794626
248 4 0.127791 0.140163 0.252144
249 4 0.615374 0.635299 0.253971
250 4 0.379656 0.360424 0.728601
251 4 0.646434 0.398095 0.731258
252 4 0.867212 0.620794 0.261287
253 4 0.385091 0.118249 0.231544
254 4 0.597732 0.892928 0.744952
255 4 0.856176 0.878321 0.706804
256 4 0.631305 0.112754 0.245425
257 4 0.13059 0.619282 0.433116
258 4 0.855237 0.412422 0.567137
259 4 0.118104 0.409787 0.937376
260 4 0.385712 0.582819 0.0828114
261 4 0.882296 0.104029 0.0565162
262 4 0.135623 0.912506 0.916952
263 4 0.377619 0.881856 0.605729
264 4 0.115294 0.122959 0.443264
265 4 0.634966 0.607007 0.438777
266 4 0.37394 0.388828 0.535999
267 4 0.621434 0.41891 0.9158
268 4 0.882978 0.597519 0.0710903
269 4 0.36475 0.0943396 0.0459352
270 4 0.630761 0.889893 0.923747
271 4 0.879973 0.915937 0.526833
272 4 0.609224 0.0999938 0.431806
273 4 0.95892 0.317096 0.517456
274 4 0.0279446 0.66835 0.466693
275 4 0.305321 0.67671 0.995836
276 4 0.210603 0.314519 0.988521
277 4 0.0411344 0.864612 0.00182939
278 4 0.963677 0.19877 0.0104376
279 4 0.219585 0.170447 0.450026
280 4 0.286164 0.816845 0.511789
281 4 0.463745 0.291802 0.510566
282 4 0.541969 0.64614 0.519038
283 4 0.786818 0.651456 0.0214878
284 4 0.708487 0.29705 0.000434298
285 4 0.539549 0.802374 0.0110312
286 4 0.453373 0.15963 0.00288514
287 4 0.723543 0.125651 0.492932
288 4 0.778922 0.821792 0.518745
289 4 0.010797 0.420724 0.623426
290 4 0.967027 0.58758 0.372313
291 4 0.256408 0.581019 0.114779
292 4 0.266908 0.395896 0.877139
293 4 0.98383 0.929957 0.883694
294 4 0.019368 0.105368 0.111713
295 4 0.277507 0.0625108 0.37632
296 4 0.237663 0.931117 0.613022
297 4 0.51283 0.392781 0.620952
298 4 0.489824 0.583328 0.389096
299 4 0.723908 0.563897 0.0996683
300 4 0.759771 0.398363 0.894177
301 4 0.491014 0.901454 0.897189
302 4 0.50143 0.0467446 0.10927
303 4 0.783821 0.0827855 0.376042
304 4 0.721696 0.901157 0.625256
305 4 0.945091 0.364198 0.235049
306 4 0.0583539 0.674687 0.750951
307 4 0.313375 0.661352 0.743439
308 4 0.187743 0.346266 0.272498
309 4 0.0508632 0.873634 0.278493
310 4 0.940446 0.166183 0.753302
311 4 0.198216 0.146991 0.753427
312 4 0.304572 0.845597 0.234212
313 4 0.442766 0.336464 0.239703
314 4 0.557966 0.651467 0.779758
315 4 0.810175 0.632561 0.771716
316 4 0.693482 0.319552 0.255224
317 4 0.54676 0.855469 0.287675
318 4 0.447513 0.142426 0.744738
319 4 0.703805 0.123382 0.760577
320 4 0.800522 0.817088 0.228805
321 4 0.987382 0.479599 0.123722
322 4 0.023193 0.543837 0.858764
323 4 0.264942 0.564235 0.623083
324 4 0.232363 0.462948 0.379085
325 4 0.992606 0.987343 0.341755
326 4 0.972447 0.0345176 0.635612
327 4 0.244468 0.0260955 0.848969
328 4 0.265466 0.967205 0.120768
329 4 0.477526 0.468338 0.127063
330 4 0.517111 0.521881 0.879192
331 4 0.769721 0.535708 0.635449
332 4 0.725168 0.438725 0.386951
333 4 0.50054 0.976411 0.38121
334 4 0.498202 0.027174 0.652376
335 4 0.755807 0.0127656 0.855588
336 4 0.762579 0.96743 0.157558
ITEM: TIMESTEP
2000
ITEM: NUMBER OF ATOMS
336
ITEM: BOX BOUNDS xy xz yz pp pp pp
-6.5218469720187455e-01 2.6895508678590410e+01 2.1262652241583503e-02
-9.8357709479416119e-02 1.1573829005070404e+01 -1.4193899125312504e-01
-5.4987889477341589e-01 1.1258878528573419e+01 -9.8529063008984327e-02
ITEM: ATOMS id type xs ys zs
1 1 0.100736 0.355962 0.419298
2 1 0.890519 0.676656 0.581392
3 1 0.144909 0.684536 0.915602
4 1 0.362058 0.319371 0.102543
5 1 0.88829 0.843273 0.0724385
6 1 0.121379 0.176707 0.910665
7 1 0.374335 0.148073 0.603309
8 1 0.135475 0.855632 0.431189
9 1 0.612668 0.318569 0.424756
10 1 0.391182 0.656742 0.576678
11 1 0.629556 0.632552 0.914655
12 1 0.856334 0.327574 0.0741237
13 1 0.385055 0.812227 0.0948228
14 1 0.618636 0.151213 0.9309
15 1 0.863918 0.158789 0.579643
16 1 0.636931 0.837695 0.40972
17 1 0.0315531 0.26066 0.301841
18 1 0.969318 0.758726 0.677613
19 1 0.216807 0.760283 0.806112
20 1 0.278346 0.262697 0.18555
21 1 0.961448 0.772294 0.188624
22 1 0.0526141 0.274706 0.793575
23 1 0.298197 0.252339 0.669461
24 1 0.200508 0.7551 0.302993
25 1 0.538035 0.244212 0.313062
26 1 0.462929 0.738965 0.703846
27 1 0.708588 0.727106 0.86416
28 1 0.787386 0.235738 0.193166
29 1 0.458118 0.764358 0.228955
30 1 0.542135 0.233708 0.828231
31 1 0.787965 0.227968 0.683047
32 1 0.71101 0.766171 0.296032
33 1 0.0931206 0.400061 0.20962
34 1 0.90569 0.636297 0.785079
35 1 0.155507 0.630009 0.707389
36 1 0.3404 0.384876 0.304415
37 1 0.898471 0.90988 0.278375
38 1 0.107206 0.114199 0.710021
39 1 0.344764 0.113571 0.7985
40 1 0.136212 0.88642 0.220404
41 1 0.602515 0.372661 0.218433
42 1 0.396908 0.607407 0.788761
43 1 0.658972 0.619305 0.716745
44 1 0.847534 0.383425 0.282951
45 1 0.39002 0.889473 0.299965
46 1 0.605895 0.110973 0.726995
47 1 0.854343 0.109393 0.786622
48 1 0.644726 0.884903 0.197196
49 2 0.125069 0.279819 0.415493
50 2 0.868143 0.752066 0.60188
51 2 0.117224 0.757438 0.910705
52 2 0.385621 0.23588 0.107779
53 2 0.861174 0.773158 0.0776871
54 2 0.148939 0.2474 0.887233
55 2 0.403134 0.21427 0.616415
56 2 0.106951 0.784608 0.43645
57 2 0.639425 0.244533 0.423819
58 2 0.363745 0.726203 0.574494
59 2 0.61161 0.71371 0.882589
60 2 0.886972 0.26681 0.0863898
61 2 0.3621 0.733545 0.0940109
62 2 0.645027 0.220737 0.928866
63 2 0.88868 0.231991 0.575464
64 2 0.609746 0.766096 0.418515
65 2 0.104947 0.402116 0.498263
66 2 0.874433 0.659457 0.493499
67 2 0.135873 0.638899 0.993752
68 2 0.37817 0.345822 0.0200325
69 2 0.880811 0.868588 0.984921
70 2 0.136287 0.147156 0.99624
71 2 0.387554 0.10562 0.525128
72 2 0.135474 0.910042 0.512251
73 2 0.619986 0.355843 0.5107
74 2 0.386336 0.612855 0.493951
75 2 0.603399 0.605786 0.982685
76 2 0.85961 0.374245 0.995177
77 2 0.381958 0.841586 0.00637696
78 2 0.628012 0.120028 0.0185511
79 2 0.872549 0.11485 0.499706
80 2 0.631453 0.888251 0.488956
81 2 0.993959 0.2258 0.296182
82 2 0.00912134 0.759884 0.660674
83 2 0.255461 0.762334 0.821293
84 2 0.237606 0.264326 0.165105
85 2 0.0020292 0.767362 0.183713
86 2 0.0128485 0.302329 0.796412
87 2 0.261401 0.287419 0.651769
88 2 0.23941 0.720388 0.304629
89 2 0.498483 0.237399 0.31413
90 2 0.501867 0.753163 0.69298
91 2 0.747433 0.730589 0.885783
92 2 0.746968 0.22513 0.183545
93 2 0.496912 0.766337 0.224035
94 2 0.503018 0.243334 0.848738
95 2 0.749328 0.235508 0.669816
96 2 0.751194 0.784447 0.305933
97 2 0.0550066 0.184058 0.270311
98 2 0.957393 0.844481 0.704682
99 2 0.203755 0.848537 0.786592
100 2 0.286373 0.175256 0.219817
101 2 0.946454 0.689575 0.215687
102 2 0.0699771 0.355976 0.767304
103 2 0.317425 0.328847 0.709196
104 2 0.177904 0.680409 0.299805
105 2 0.552638 0.156782 0.291877
106 2 0.447174 0.821147 0.73321
107 2 0.691221 0.811457 0.844253
108 2 0.800272 0.147966 0.214961
109 2 0.444578 0.68086 0.263833
110 2 0.551529 0.320872 0.802465
111 2 0.805395 0.313096 0.707205
112 2 0.708772 0.674135 0.267713
113 2 0.116201 0.322247 0.179946
114 2 0.887174 0.706825 0.833278
115 2 0.13302 0.70458 0.670472
116 2 0.355321 0.311662 0.353143
117 2 0.870869 0.85398 0.320176
118 2 0.136625 0.157925 0.665424
119 2 0.368456 0.176297 0.83673
120 2 0.108044 0.829331 0.180784
121 2 0.623337 0.299554 0.183078
122 2 0.376193 0.685103 0.820167
123 2 0.63706 0.695834 0.691038
124 2 0.869668 0.31851 0.325526
125 2 0.366671 0.817561 0.331954
126 2 0.626654 0.185891 0.697508
127 2 0.870541 0.193608 0.811458
128 2 0.625626 0.806755 0.165176
129 2 0.0948819 0.47144 0.148135
130 2 0.902921 0.566346 0.850035
131 2 0.14933 0.563004 0.640047
132 2 0.34237 0.460246 0.365339
133 2 0.90052 0.99191 0.324721
134 2 0.104893 0.0289208 0.660105
135 2 0.339591 0.0427656 0.860417
136 2 0.134366 0.956344 0.157432
137 2 0.601959 0.448737 0.161106
138 2 0.390083 0.540969 0.851099
139 2 0.660252 0.56766 0.637482
140 2 0.846791 0.45761 0.344061
141 2 0.377139 0.959923 0.35146
142 2 0.607409 0.0421293 0.657893
143 2 0.862895 0.0526814 0.856188
144 2 0.634811 0.949568 0.133742
145 3 0.115724 0.429925 0.322631
146 3 0.876213 0.606999 0.683018
147 3 0.130844 0.606619 0.818691
148 3 0.372257 0.398633 0.205077
149 3 0.875662 0.929996 0.163042
150 3 0.132629 0.0893683 0.820054
151 3 0.376927 0.073176 0.704725
152 3 0.118237 0.92859 0.334413
153 3 0.626137 0.398539 0.331349
154 3 0.37735 0.578839 0.671687
155 3 0.625837 0.567067 0.806002
156 3 0.869107 0.410712 0.172139
157 3 0.369332 0.900668 0.17971
158 3 0.633347 0.0771839 0.833574
159 3 0.879976 0.0841434 0.679104
160 3 0.62157 0.909511 0.306402
161 3 0.0523342 0.291337 0.414515
162 3 0.939145 0.73186 0.571466
163 3 0.192427 0.74635 0.919504
164 3 0.312528 0.267503 0.0863852
165 3 0.937114 0.782423 0.07687
166 3 0.0767101 0.250223 0.907976
167 3 0.328423 0.216463 0.57316
168 3 0.180673 0.783627 0.419043
169 3 0.563165 0.260782 0.424308
170 3 0.438093 0.723406 0.5875
171 3 0.676602 0.687859 0.957126
172 3 0.810521 0.256853 0.0799613
173 3 0.435287 0.757515 0.113338
174 3 0.568847 0.211181 0.936406
175 3 0.814773 0.215313 0.574452
176 3 0.683994 0.772164 0.406111
177 3 0.0457104 0.337374 0.203608
178 3 0.957056 0.685178 0.7765
179 3 0.204906 0.685742 0.705718
180 3 0.289213 0.342219 0.286176
181 3 0.945708 0.850888 0.288055
182 3 0.0618223 0.19053 0.698401
183 3 0.29995 0.18749 0.778111
184 3 0.183309 0.827059 0.203657
185 3 0.551857 0.320015 0.214691
186 3 0.447861 0.659321 0.795991
187 3 0.70549 0.681068 0.745506
188 3 0.799054 0.319906 0.286686
189 3 0.441167 0.849355 0.318626
190 3 0.556111 0.162308 0.726584
191 3 0.80387 0.158478 0.785974
192 3 0.696191 0.837957 0.195793
193 3 0.108351 0.559912 0.353393
194 3 0.880666 0.476665 0.656599
195 3 0.132263 0.478441 0.849837
196 3 0.373544 0.525891 0.168974
197 3 0.881697 0.0568297 0.128294
198 3 0.11777 0.968254 0.864248
199 3 0.368314 0.945241 0.669586
200 3 0.137665 0.051368 0.354916
201 3 0.615868 0.522538 0.370343
202 3 0.391449 0.452557 0.643591
203 3 0.634099 0.438023 0.825481
204 3 0.856984 0.538044 0.14014
205 3 0.380756 0.0209376 0.132991
206 3 0.626295 0.948585 0.861004
207 3 0.873629 0.955804 0.646128
208 3 0.628595 0.0391531 0.336822
209 3 0.01529 0.345885 0.495878
210 3 0.969876 0.675023 0.476503
211 3 0.224399 0.6748 0.00361809
212 3 0.286467 0.334884 0.985544
213 3 0.972427 0.844539 0.995654
214 3 0.0406522 0.19234 0.989445
215 3 0.299215 0.143755 0.485376
216 3 0.221593 0.835618 0.497
217 3 0.53002 0.322344 0.510572
218 3 0.473609 0.673059 0.500182
219 3 0.704692 0.606593 0.0376918