LAMMPS data file via write_data, version 15 Apr 2020, timestep = 80000

336 atoms
4 atom types

3.4711648649063065e-02 2.6329288671751474e+01 xlo xhi
5.0484514752774601e-02 1.1523515843847074e+01 ylo yhi
-1.1182735065093929e+00 1.1827273140309277e+01 zlo zhi
3.0911399497872249e-02 -1.3399423394796800e-01 -1.9822647009226926e-01 xy xz yz

Masses

1 12.0107
2 1.00794
3 14.0067
4 15.9994

Atoms # full

1 1 1 -4.0843361263745707e-02 2.6708300552292030e+00 3.9097819657811628e+00 1.9926511099018507e+00 0 0 0
2 1 1 -3.2555749948160032e-02 2.3367693501645451e+01 7.8730916038617282e+00 5.6986918731440550e+00 0 0 0
3 1 1 -4.1748557085759308e-02 3.3910924053522309e+00 7.5679196801111468e+00 1.0905584820176085e+01 0 0 0
4 1 1 -2.7368774600588119e-02 9.5052869468237606e+00 3.7254909249923025e+00 -6.8793833711293484e-01 0 0 0
5 1 1 -4.0023121172542128e-02 2.2979448796535586e+01 9.2694164008939826e+00 -8.8369123168139352e-01 0 0 0
6 1 1 -3.9974599412975945e-02 2.0352179289233034e+00 2.0473100484434106e+00 1.0940450337267844e+01 0 0 0
7 1 1 -3.1588025122192449e-02 7.2445659991678788e+00 2.8558811931576717e+00 7.6364710137438774e+00 0 0 0
8 1 1 -3.7585632994293711e-02 4.2425889577441351e+00 8.8626197899052475e+00 4.3580715428956589e+00 0 0 0
9 1 1 -3.9872933780260078e-02 1.5823752142941144e+01 3.9806477757454015e+00 5.0358819276391564e+00 0 0 0
10 1 1 -2.9858246198017822e-02 1.0201555891647436e+01 8.0633500333142170e+00 6.5278920389015127e+00 0 0 0
11 1 1 -3.2773907775907760e-02 1.6369777883629382e+01 7.4089975739413525e+00 1.0761254001520269e+01 0 0 0
12 1 1 -3.0339526068570166e-02 2.2279682296403799e+01 3.3514748316365615e+00 3.0710164262086592e-01 0 0 0
13 1 1 -4.5104127278747519e-02 1.0245489967476328e+01 9.5277759182804971e+00 -4.1233550575718592e-01 0 0 0
14 1 1 -3.0741721722347272e-02 1.5644079493533734e+01 1.9878875002160965e+00 1.1306741091532455e+01 0 0 0
15 1 1 -3.4515218210139274e-02 2.2425842683368625e+01 2.1261901161711050e+00 6.8839986024700703e+00 0 0 0
16 1 1 -3.3198716895760857e-02 1.7015802354487104e+01 9.7848525472570529e+00 4.9611377549430671e+00 0 0 0
17 1 1 -2.5989381760449879e-02 2.4767274017369258e+00 2.7177736775581298e+00 4.2972375153923039e+00 0 0 0
18 1 1 -2.4719252124452359e-02 2.5762196076601569e+01 8.6039092767444441e+00 6.5613084327711375e+00 0 0 0
19 1 1 -3.0492780379453407e-02 5.6109739086862138e+00 8.7814412390223282e+00 1.0355659980312980e+01 0 0 0
20 1 1 -2.4984311751307740e-02 7.7841562512865661e+00 2.8514173463584176e+00 9.7909790156202670e-01 0 0 0
21 1 1 -3.4369097871860023e-02 2.5127796886115256e+01 8.0924595983337149e+00 -1.1493732758636388e-01 0 0 0
22 1 1 -3.4733647761318293e-02 3.8932704353256797e-01 2.8702793206873332e+00 9.1738529164981344e+00 0 0 0
23 1 1 -4.4260293320005667e-02 9.3312029009204380e+00 1.7845048757516255e+00 8.4734163316069750e+00 0 0 0
24 1 1 -3.6408996173962621e-02 6.1346416415620784e+00 8.3770980918649336e+00 2.7268117364293780e+00 0 0 0
25 1 1 -3.5125000447538121e-02 1.3876477460246301e+01 3.3207468429885862e+00 3.4211797986607149e+00 0 0 0
26 1 1 -2.2377058476891344e-02 1.2370920626605390e+01 9.1122118270177204e+00 7.4530764353332302e+00 0 0 0
27 1 1 -3.0601128101741617e-02 1.8615408253484809e+01 8.6071213851336186e+00 1.0738124251205670e+01 0 0 0
28 1 1 -2.6524617804559596e-02 2.0659031637171033e+01 2.5159834246104991e+00 2.0668531289201253e+00 0 0 0
29 1 1 -2.6527147920136589e-02 1.2128069092897729e+01 8.4693059519904583e+00 9.2157487154335582e-01 0 0 0
30 1 1 -3.1812600102450600e-02 1.4195859335706372e+01 3.0549927213237580e+00 9.4348974206340817e+00 0 0 0
31 1 1 -3.5391375537401792e-02 2.0877741918012781e+01 2.7393140135298317e+00 8.7702458523813451e+00 0 0 0
32 1 1 -3.3787137006104875e-02 1.8918945685377864e+01 8.4415434220064220e+00 4.1817512946514448e+00 0 0 0
33 1 1 -3.4883716422986641e-02 5.6846683778505636e-01 2.5075903633066989e+00 2.5840135589308471e+00 0 0 0
34 1 1 -3.6486828593755280e-02 2.4019645902365252e+01 7.4471480395751914e+00 8.0951215175313500e+00 0 0 0
35 1 1 -3.2784550194090670e-02 4.2637825475056852e+00 7.6021017982824386e+00 8.5482673269658047e+00 0 0 0
36 1 1 -3.4553856591199694e-02 9.6630889349388749e+00 4.3369853751971830e+00 1.8005574765891459e+00 0 0 0
37 1 1 -3.4662487580096962e-02 2.3788601345254705e+01 9.5298176608327978e+00 1.5274227605280442e+00 0 0 0
38 1 1 -4.0887431016950790e-02 2.5414258573437101e+00 1.6858246935728556e+00 8.4005918517585680e+00 0 0 0
39 1 1 -4.4398272265777181e-02 9.1324470191146023e+00 2.3409547658683691e+00 5.9833402363438744e+00 0 0 0
40 1 1 -4.3863295527038840e-02 4.0413274198502736e+00 9.4656232504795401e+00 1.8126030259041381e+00 0 0 0
41 1 1 -2.7869644100434326e-02 1.5900997910034913e+01 4.6767263946983491e+00 2.5736992008206134e+00 0 0 0
42 1 1 -3.1692463899559931e-02 1.0872808680591270e+01 7.6767446627467413e+00 9.0331257763481521e+00 0 0 0
43 1 1 -4.3230609643073528e-02 1.7877754896219411e+01 7.3484350266242249e+00 8.6455076952886856e+00 0 0 0
44 1 1 -3.5525733806860658e-02 2.2304622977575605e+01 4.4058582575678811e+00 2.5875059143852415e+00 0 0 0
45 1 1 -3.4835216965044477e-02 1.0448215462107960e+01 1.0016771312894681e+01 2.1283023880391441e+00 0 0 0
46 1 1 -3.7500823413708001e-02 1.6129459149170426e+01 1.4444205995946080e+00 8.8497082065988746e+00 0 0 0
47 1 1 -3.4539800957714875e-02 2.2300164478639722e+01 5.8555190847070215e-01 8.9973723578797848e+00 0 0 0
48 1 1 -3.1493009273683689e-02 1.7554964254088301e+01 9.6077518281697625e+00 2.4470218003095323e+00 0 0 0
49 1 2 1.2791434680734223e-01 3.4747381823355106e+00 3.6501420633459079e+00 1.2907933523420274e+00 0 0 0
50 1 2 1.4550337237642638e-01 2.2662746469492163e+01 8.7091052132554942e+00 5.7093263231005968e+00 0 0 0
51 1 2 1.3207224385519317e-01 2.6154505586081576e+00 8.3348375625238553e+00 1.0903849289573216e+01 0 0 0
52 1 2 1.5354721611254143e-01 1.0237104894486016e+01 2.8697000842471283e+00 -9.9962236403382965e-01 0 0 0
53 1 2 1.4352109275076708e-01 2.2350643025852868e+01 8.3341034655965700e+00 -8.7207280308651192e-01 0 0 0
54 1 2 1.3549720000219084e-01 2.6893340039286739e+00 2.9118832435166491e+00 1.1148410315785394e+01 0 0 0
55 1 2 1.4557310348847585e-01 7.1350442005569699e+00 3.9855267471233091e+00 7.9423270633606080e+00 0 0 0
56 1 2 1.3566914135124672e-01 3.5970613303787595e+00 7.9395324730582688e+00 4.4755520069700818e+00 0 0 0
57 1 2 1.3586936230000360e-01 1.6600659060597362e+01 3.1458657068456950e+00 5.0885499480618321e+00 0 0 0
58 1 2 1.5403413712167571e-01 9.4549096784829683e+00 8.8811071027855917e+00 6.5488953311649114e+00 0 0 0
59 1 2 1.4527178349041564e-01 1.5701905301763928e+01 8.2362744573560658e+00 1.0474956386855158e+01 0 0 0
60 1 2 1.4207335223716919e-01 2.2998423536549566e+01 2.4785504179905389e+00 5.4897348522918343e-01 0 0 0
61 1 2 1.3703036666177842e-01 9.4362065848231769e+00 8.7828230298134287e+00 -4.3378292344026337e-01 0 0 0
62 1 2 1.4845361247774080e-01 1.6366898600285825e+01 2.7717236249222048e+00 1.1690944111846640e+01 0 0 0
63 1 2 1.4552057297460197e-01 2.3210990407174336e+01 2.9038003137735271e+00 6.9341241051505609e+00 0 0 0
64 1 2 1.4474501429475786e-01 1.6053924336454507e+01 9.2644691623875897e+00 5.2687482879299665e+00 0 0 0
65 1 2 1.3471465432974400e-01 2.5994109846659610e+00 5.0213358890955160e+00 1.8338699109701628e+00 0 0 0
66 1 2 1.3174909320684619e-01 2.2998779844475571e+01 7.3089866359417552e+00 4.7941107653829675e+00 0 0 0
67 1 2 1.3389249785283897e-01 3.0122155238013510e+00 6.8943517736524988e+00 1.1672791654106566e+01 0 0 -1
68 1 2 1.4589860283156234e-01 9.2876898192265394e+00 4.1920536748504729e+00 1.1340768441669306e+01 0 0 0
69 1 2 1.3079084645744626e-01 2.2488034246682091e+01 9.6588559354862173e+00 1.1254928550874187e+01 0 0 0
70 1 2 1.3407616372616937e-01 2.0564377507322384e+00 1.7261546422887681e+00 -1.0598804938533086e+00 0 0 0
71 1 2 1.4198116366939614e-01 6.1943163330898798e+00 2.6142829106809091e+00 7.7140520617611621e+00 0 0 0
72 1 2 1.3755868352861356e-01 4.0741212178234125e+00 9.5009649441275439e+00 5.2840800162006181e+00 0 0 0
73 1 2 1.4123229898554987e-01 1.5922602360901029e+01 4.5247977567014157e+00 5.9570361578363356e+00 0 0 0
74 1 2 1.4488565226897512e-01 9.8311039102777560e+00 7.3861858197939583e+00 5.7414880129351138e+00 0 0 0
75 1 2 1.4153505424040025e-01 1.5824245708813395e+01 6.8246947923309804e+00 1.1578493481436965e+01 0 0 -1
76 1 2 1.3808015551747063e-01 2.2461850123289210e+01 3.5745891728742394e+00 -8.1554650082456837e-01 0 0 1
77 1 2 1.3277921278761376e-01 9.9996824713771630e+00 1.0036771485332586e+01 1.1684820425657104e+01 0 0 0
78 1 2 1.4436542910352043e-01 1.5527006726265466e+01 1.5959218624069809e+00 -7.4554222648971658e-01 0 0 0
79 1 2 1.4405314601675923e-01 2.2390274709399741e+01 1.9806706574201001e+00 5.7855997326272322e+00 0 0 0
80 1 2 1.3575270237145864e-01 1.6996557474757509e+01 1.0744024681494736e+01 5.5025003869128026e+00 0 0 0
81 1 2 1.4181238024113543e-01 2.7368000100967564e+00 2.9884979820796542e+00 5.3897078033318788e+00 1 0 0
82 1 2 1.4420899987750219e-01 5.2452105469317445e-01 8.4241372289108565e+00 6.2241466088361426e+00 0 0 0
83 1 2 1.4106910365812045e-01 6.6517837503165760e+00 8.8035339740302341e+00 1.0698749704346387e+01 0 0 0
84 1 2 1.4565584611818033e-01 6.7077291875273852e+00 3.0946637281396252e+00 1.0492342676134858e+00 0 0 0
85 1 2 1.4422369300495577e-01 2.6164074514168458e+01 8.1442601839687203e+00 -3.7081602846196660e-01 -1 0 0
86 1 2 1.3817738374804561e-01 2.5612659829817265e+01 2.8959145198691627e+00 9.0188624990660209e+00 0 0 0
87 1 2 1.3473543587743908e-01 9.7530026503070069e+00 1.0891866412256526e+00 9.1895565726049924e+00 0 0 0
88 1 2 1.3445052475992833e-01 7.2191608393858200e+00 8.4473508855599508e+00 2.6125432502541073e+00 0 0 0
89 1 2 1.2925814886490888e-01 1.2769294655150020e+01 3.3980393507041984e+00 3.3151546011373849e+00 0 0 0
90 1 2 1.5290371099567637e-01 1.3438236102294631e+01 9.3232297792903438e+00 7.1807259859452550e+00 0 0 0
91 1 2 1.3992213437602144e-01 1.9549678529271119e+01 8.7312932197204027e+00 1.1359858049850429e+01 0 0 0
92 1 2 1.5301377692822987e-01 1.9601150318191674e+01 2.0947515007062245e+00 2.1614038947270386e+00 0 0 0
93 1 2 1.5306747531074674e-01 1.3304557573647962e+01 8.3880351390390189e+00 8.7412486647318133e-01 0 0 0
94 1 2 1.3985845500045072e-01 1.3093412726175096e+01 3.2425236084995910e+00 9.3522693526337246e+00 0 0 0
95 1 2 1.4666879615137193e-01 1.9854287816871903e+01 3.0729582577960439e+00 9.0731648621855641e+00 0 0 0
96 1 2 1.3370659571973942e-01 1.9998083774222785e+01 8.2665441270612945e+00 4.4541727537520570e+00 0 0 0
97 1 2 1.5704715055164595e-01 3.1468714288424966e+00 1.8340147573810714e+00 4.1417997680742129e+00 0 0 0
98 1 2 1.4193114247073169e-01 2.5657716540653269e+01 9.7494253340816712e+00 6.7411875230635685e+00 0 0 0
99 1 2 1.4277402055240038e-01 5.3791212437318254e+00 9.8943129099822116e+00 1.0307334497413930e+01 0 0 0
100 1 2 1.4540428102148462e-01 7.7539302312761871e+00 1.7314382868936899e+00 1.1284299448771908e+00 0 0 0
101 1 2 1.2870411508926308e-01 2.4833950021914227e+01 7.0118790890398914e+00 1.0804982123258067e-01 0 0 0
102 1 2 1.3515763442437773e-01 6.8573331378462832e-01 3.9351167137443923e+00 8.9814139229666310e+00 0 0 0
103 1 2 1.2448432140661160e-01 9.9437340967179448e+00 2.6802209934758325e+00 8.6595789609237901e+00 0 0 0
104 1 2 1.3255654136332684e-01 5.9349089761708731e+00 7.3388158054760089e+00 2.4457981048048616e+00 0 0 0
105 1 2 1.3089807968890607e-01 1.4145933599397456e+01 2.2125078921565922e+00 3.2707986790387595e+00 0 0 0
106 1 2 1.4249508054927945e-01 1.2049112210871588e+01 1.0160671713324579e+01 7.6947728760942375e+00 0 0 0
107 1 2 1.4162611042268033e-01 1.8434970880186007e+01 9.6584280707997383e+00 1.0503863238032373e+01 0 0 0
108 1 2 1.3682405959293858e-01 2.1325481688846764e+01 1.6100836305952353e+00 2.4440586438205818e+00 0 0 0
109 1 2 1.3727515477429678e-01 1.1717029068267028e+01 7.4601533539562910e+00 1.0742286918668809e+00 0 0 0
110 1 2 1.3939635755987778e-01 1.4612711861359083e+01 4.0815470452341387e+00 9.3113628814851079e+00 0 0 0
111 1 2 1.2674252069566014e-01 2.1579507333854082e+01 3.5071535972009591e+00 9.0536646552710156e+00 0 0 0
112 1 2 1.3454167511499307e-01 1.8619939899467457e+01 7.3639849885195909e+00 4.2349002713599138e+00 0 0 0
113 1 2 1.4045248134693508e-01 4.9293137996112807e-01 1.5318390667895931e+00 2.1385736071049033e+00 0 0 0
114 1 2 1.3111006248401030e-01 2.3332000221233177e+01 8.2315890231651814e+00 8.5281780429858625e+00 0 0 0
115 1 2 1.3364468111936822e-01 3.6574504037159228e+00 8.4959600613726849e+00 8.2581913416335944e+00 0 0 0
116 1 2 1.2504721494486309e-01 1.0461244853153348e+01 3.6573561501897935e+00 2.2261455146179965e+00 0 0 0
117 1 2 1.3616291896711291e-01 2.3081388828388015e+01 8.8124516529977992e+00 2.0729509619995032e+00 0 0 0
118 1 2 1.2752212286030556e-01 3.1757499671737417e+00 2.5872647095851597e+00 8.2577907747899317e+00 0 0 0
119 1 2 1.3673890206975972e-01 9.6489468561216896e+00 3.3342582537213117e+00 5.8461278240970600e+00 0 0 0
120 1 2 1.1936319365265681e-01 3.5233884533998476e+00 8.5521948507574344e+00 1.3338992970729309e+00 0 0 0
121 1 2 1.4232604676695815e-01 1.6642005979179515e+01 3.9753195874544232e+00 2.0988940173270580e+00 0 0 0
122 1 2 1.2515602459173741e-01 1.0320447824344356e+01 8.3617919066277437e+00 9.7054746245025232e+00 0 0 0
123 1 2 1.2106901325645364e-01 1.7381283115169513e+01 8.1767463137846086e+00 8.0816192089064636e+00 0 0 0
124 1 2 1.2576717624445541e-01 2.3095056551480187e+01 3.8203922430029138e+00 3.0698349191116865e+00 0 0 0
125 1 2 1.3102447890662977e-01 9.6062013641006896e+00 9.4819909321590305e+00 2.6965969200431221e+00 0 0 0
126 1 2 1.3991124465788959e-01 1.6904440129066387e+01 2.1151169382618487e+00 8.5289047521924033e+00 0 0 0
127 1 2 1.4683697554220612e-01 2.3029170553085020e+01 5.4859920598419953e-01 9.8530448548518805e+00 0 0 0
128 1 2 1.3885354891782337e-01 1.6904864297242373e+01 8.8773623951133782e+00 1.8764774872605496e+00 0 0 0
129 1 2 1.3742180399264117e-01 2.5806413833249515e+01 2.8543802175445752e+00 2.5532892516846877e+00 -1 0 0
130 1 2 1.2898908269034495e-01 2.3899404099922840e+01 6.6943340766687705e+00 8.8912126604791961e+00 0 0 0
131 1 2 1.4466937709014316e-01 4.4757179739291137e+00 7.0207391733561559e+00 7.6645148836189954e+00 0 0 0
132 1 2 1.3775455805283177e-01 9.7532267503603141e+00 5.2952984160809384e+00 2.4339182160396651e+00 0 0 0
133 1 2 1.4247924473520676e-01 2.3978024581946027e+01 1.0316045066663824e+01 2.3032951075626280e+00 0 0 0
134 1 2 1.4028227810158422e-01 2.9218248365139967e+00 9.4636996494373193e-01 7.6406392205741511e+00 0 0 0
135 1 2 1.3041766922859852e-01 9.2482512569201543e+00 1.8690914649834434e+00 5.0362521606081829e+00 0 0 0
136 1 2 1.4069704717791245e-01 3.8934487728904910e+00 1.0332169784907318e+01 1.2067897541944439e+00 0 0 0
137 1 2 1.5499739122575559e-01 1.6036787621028097e+01 5.6738850520246613e+00 1.9868553384402499e+00 0 0 0
138 1 2 1.5308355754933503e-01 1.1098344609551585e+01 6.7377726042875814e+00 9.6443815185736472e+00 0 0 0
139 1 2 1.3407211234990046e-01 1.8330716956610281e+01 6.6214932218365190e+00 7.9190360288740642e+00 0 0 0
140 1 2 1.4248074345174644e-01 2.2438018731866265e+01 5.4603315366895639e+00 3.0717486705964001e+00 0 0 0
141 1 2 1.4468350897165333e-01 1.0516074352998663e+01 1.0882821077113805e+01 2.8217513055848369e+00 0 0 0
142 1 2 1.3637867891012592e-01 1.6277870087379700e+01 5.8350111018819750e-01 8.1706811412184877e+00 0 0 0
143 1 2 1.3750577238232209e-01 2.2008730649917560e+01 1.1014371682322501e+01 8.9714926280437570e+00 0 -1 0
144 1 2 1.4161750709549742e-01 1.7696304585754078e+01 1.0391517120498193e+01 1.6265235425241666e+00 0 0 0
145 1 3 1.8599924493043749e-02 1.3111829553503007e+00 3.3882348290496767e+00 1.6203105931429715e+00 0 0 0
146 1 3 2.9656183796817073e-02 2.3091836732252574e+01 7.0648754528920561e+00 6.9453501107875830e+00 0 0 0
147 1 3 4.0841856436502823e-02 3.2883001842127935e+00 7.0118117170856049e+00 9.5223397555914193e+00 0 0 0
148 1 3 4.1762555143673184e-02 1.0045352562578435e+01 4.6357981936084736e+00 3.5867060187771349e-01 0 0 0
149 1 3 4.0074934717880865e-02 2.2842078095261801e+01 9.9306379116998187e+00 4.5232697805982602e-01 0 0 0
150 1 3 3.1311431846657960e-02 2.8272447571482249e+00 1.3849025030185020e+00 9.8264910087046680e+00 0 0 0
151 1 3 3.2754256284544203e-02 7.6873633975811790e+00 2.7184708411643697e+00 6.2159262028792286e+00 0 0 0
152 1 3 2.3387451742361277e-02 3.6194734534790518e+00 9.6764084000965962e+00 3.2119964230335034e+00 0 0 0
153 1 3 2.9437168650768446e-02 1.6369920614516410e+01 4.8914268751102083e+00 3.9956949495138314e+00 0 0 0
154 1 3 4.4509223778086332e-02 9.9904046676512657e+00 7.4032056914895525e+00 7.8606978605008209e+00 0 0 0
155 1 3 3.6478783288320070e-02 1.6708425822130444e+01 6.8071173149583029e+00 9.4502378987812712e+00 0 0 0
156 1 3 2.9640660322583223e-02 2.2717167019653608e+01 4.5209133078811945e+00 1.1390590038505417e+00 0 0 0
157 1 3 3.1132556961592443e-02 9.8484045481178466e+00 1.0327797356836168e+01 8.0907136725750339e-01 0 0 0
158 1 3 4.4194909955532408e-02 1.6350726803586511e+01 1.1268079213936997e+00 1.0317406278347368e+01 0 0 0
159 1 3 4.4894482131537919e-02 2.2902241718996823e+01 9.1150830734974597e-01 7.6429623882919504e+00 0 0 0
160 1 3 4.0730621360081258e-02 1.6765056458356487e+01 1.0240852103867494e+01 3.5448320457183993e+00 0 0 0
161 1 3 3.8439526955868927e-02 3.2231045660975721e+00 3.6458551355699242e+00 3.3608849750407988e+00 0 0 0
162 1 3 3.0307660323480905e-02 2.4792334998008805e+01 8.3253250703523847e+00 5.4370689721270766e+00 0 0 0
163 1 3 2.0552110944764525e-02 4.6839745485957902e+00 8.1930937238772348e+00 1.1369894016961293e+01 0 0 0
164 1 3 3.5745259653973412e-02 8.1888656445300452e+00 3.0724657372200572e+00 -4.5336097058231184e-01 0 0 0
165 1 3 2.0005129051826886e-02 2.4138219408513059e+01 8.3769706534348067e+00 1.1695279584457184e+01 0 0 -1
166 1 3 2.5306242167358689e-02 6.7994877454282654e-01 2.5940117555401629e+00 1.0609602657614754e+01 0 0 0
167 1 3 2.5531686131033057e-02 7.9030777001752250e+00 2.0818008410844255e+00 8.7417918483863613e+00 0 0 0
168 1 3 3.7160554587189733e-02 5.6157158131565197e+00 8.3777882789675537e+00 4.1784709950249619e+00 0 0 0
169 1 3 2.5892695773977469e-02 1.4426862315073778e+01 3.4571049146462931e+00 4.8059774286663206e+00 0 0 0
170 1 3 4.0955497780978303e-02 1.1540064738308411e+01 8.7096963905506950e+00 6.2706577884514454e+00 0 0 0
171 1 3 3.4657595756386855e-02 1.7469484836004948e+01 8.1263365751524645e+00 1.1513764312514562e+01 0 0 0
172 1 3 4.2415845032920806e-02 2.1002980558962655e+01 2.6146764435605760e+00 5.9568093110488718e-01 0 0 0
173 1 3 2.2252898263506335e-02 1.1622424429256030e+01 8.9312933736140909e+00 -4.0976867051590393e-01 0 0 0
174 1 3 2.9437020892530544e-02 1.4487654668041344e+01 2.8945092159504200e+00 1.0880213361924847e+01 0 0 0
175 1 3 3.1206704951602639e-02 2.1139646214091485e+01 2.8210776786823302e+00 7.2728552238286248e+00 0 0 0
176 1 3 1.6374904155153254e-02 1.8229501688754773e+01 9.0263484521364692e+00 5.3532935347466077e+00 0 0 0
177 1 3 3.4447703352698714e-02 1.0527846435427972e+00 2.3832728670890413e+00 3.9924887915175864e+00 0 0 0
178 1 3 3.9314707921093810e-02 2.5379629542797701e+01 7.9790383159450862e+00 7.8871216290611628e+00 0 0 0
179 1 3 4.3043188374600465e-02 5.5602619295698261e+00 8.2094820060607141e+00 8.9770573983289843e+00 0 0 0
180 1 3 2.7203120233346104e-02 8.4261881705289419e+00 3.5682109358201868e+00 2.1141062911468742e+00 0 0 0
181 1 3 3.0690815338951013e-02 2.5064508586267635e+01 8.8383646134711640e+00 1.1815237735251851e+00 0 0 0
182 1 3 3.2127537238240078e-02 1.1515328594829097e+00 2.1257011316911010e+00 8.0796212925170128e+00 0 0 0
183 1 3 2.6425794268512673e-02 9.8070301437233862e+00 1.5591492210965816e+00 7.0387065576105954e+00 0 0 0
184 1 3 1.6541439984304150e-02 5.5256935981900535e+00 9.2013237462162749e+00 1.6501279967779521e+00 0 0 0
185 1 3 2.2693520715138343e-02 1.4617991168291486e+01 3.9739740389631986e+00 2.2693800779142568e+00 0 0 0
186 1 3 3.0087274993350181e-02 1.2206125311338948e+01 8.3515610508744711e+00 8.7306352051849849e+00 0 0 0
187 1 3 2.2642169059567164e-02 1.8958248868987283e+01 8.0864896326962850e+00 9.3485701340652128e+00 0 0 0
188 1 3 3.5968606204480356e-02 2.1051978738333723e+01 3.6460457563197650e+00 2.9662571263418771e+00 0 0 0
189 1 3 3.9330434827355917e-02 1.1732616710169724e+01 9.2288880366591393e+00 2.1533985434694229e+00 0 0 0
190 1 3 2.3834217327414677e-02 1.4836238355261127e+01 2.0939024972349150e+00 8.4715763046984396e+00 0 0 0
191 1 3 2.8274798886779522e-02 2.1210465538021783e+01 1.4906226703580712e+00 9.4771642337813962e+00 0 0 0
192 1 3 4.2116423161098503e-02 1.8829995538485218e+01 8.8787948718060328e+00 2.7467237764236594e+00 0 0 0
193 1 3 2.2235091413761576e-01 3.3909969816642277e-01 4.4260839881251917e+00 1.0385340772898681e+00 0 0 0
194 1 3 2.2751156181709264e-01 2.3169119753594828e+01 5.5628708254788632e+00 6.6239963876916530e+00 0 0 0
195 1 3 2.3998336571669598e-01 3.3846871036896458e+00 5.4522830651966121e+00 9.5201868326785277e+00 0 0 0
196 1 3 2.2605355469762350e-01 9.7783194159166182e+00 6.0995457224633993e+00 1.3420869398625301e-02 0 0 0
197 1 3 2.3646557812700830e-01 2.2807233820018492e+01 1.1490466449740110e+01 2.3242335243773726e-01 0 -1 0
198 1 3 2.3770655801997448e-01 3.0315558168570060e+00 1.1337055383765733e+01 1.0097306568561615e+01 0 0 0
199 1 3 2.4217452723992294e-01 6.6747464507047178e+00 1.9361931931205936e+00 5.3574218030946481e+00 0 1 0
200 1 3 2.2433229068538277e-01 3.7149707515872170e+00 1.1176553038752798e+01 3.4957003708382732e+00 0 -1 0
201 1 3 2.3118845499901511e-01 1.6289758469529666e+01 6.4068552739178353e+00 4.4248601569267221e+00 0 0 0
202 1 3 2.4196092143879311e-01 1.0075410746393077e+01 5.8617085992262075e+00 7.6917783840763629e+00 0 0 0
203 1 3 2.2744741616108249e-01 1.6861763208351096e+01 5.2998064537739475e+00 9.5703957441813561e+00 0 0 0
204 1 3 2.3365535463077203e-01 2.2327516716370070e+01 5.8550673401333384e+00 4.9485772993497967e-01 0 0 0
205 1 3 2.3194760265414591e-01 9.9670579611399326e+00 3.8025544474039707e-01 5.1780961930939995e-01 0 0 0
206 1 3 2.3028655486052726e-01 1.6203158973457626e+01 1.1088925189501746e+01 1.0585630451434664e+01 0 0 0
207 1 3 2.4204147358659842e-01 2.2958355810535224e+01 1.1176235722429514e+01 6.6991180318602819e+00 0 0 0
208 1 3 2.3164662681788717e-01 1.6793828387192246e+01 3.0963343055918990e-01 3.4416121304331870e+00 0 0 0
209 1 3 2.4027246422635315e-01 3.4339711256464498e+00 5.0004027919083551e+00 4.0703444020560484e+00 0 0 0
210 1 3 2.3132102039452476e-01 2.5425182052161368e+01 7.3885177356786853e+00 4.3929452056380871e+00 0 0 0
211 1 3 2.2604813293578457e-01 5.5984564631272615e+00 7.3605061524599327e+00 -7.2512769222002404e-01 0 0 0
212 1 3 2.3470343590368362e-01 6.9406208164771339e+00 3.6346511192080579e+00 1.1737137828275650e+01 0 0 0
213 1 3 2.2961490856606617e-01 2.4995965185719655e+01 9.2521227246947060e+00 1.0752989619110350e+01 0 0 0
214 1 3 2.3444209624021378e-01 2.5833270090836656e+01 1.7648956545706704e+00 1.1237967549532796e+01 -1 0 -1
215 1 3 2.3412229800571754e-01 7.1992416750355179e+00 7.1395392996014040e-01 9.0604500911573176e+00 0 0 0
216 1 3 2.4766482064647677e-01 6.5903427733926740e+00 9.0105811351367873e+00 5.1897776131693316e+00 0 0 0
217 1 3 2.3456097675135876e-01 1.3422123564974457e+01 4.1565694575908196e+00 5.7470519868136245e+00 0 0 0
218 1 3 2.4589679956104077e-01 1.2323835270921581e+01 8.0024340017039925e+00 5.1305585064330659e+00 0 0 0
219 1 3 2.3610586480637438e-01 1.8062555216373049e+01 7.3790117721985524e+00 -2.8904215089229035e-01 0 0 0
220 1 3 2.4959134401105190e-01 1.9879293252831495e+01 3.3118350892743669e+00 -1.8755290833751004e-01 0 0 1
221 1 3 2.2944130449184086e-01 1.2510737307943453e+01 9.5951701816337476e+00 1.1735075299801924e+01 0 0 0
222 1 3 2.4028678953444629e-01 1.3220861772335413e+01 2.4670281448260938e+00 1.1650312423764364e+01 0 0 -1
223 1 3 2.4274992264371265e-01 1.9971616157704776e+01 2.4354318310118641e+00 6.3779378362707382e+00 0 0 0
224 1 3 2.2383105731856967e-01 1.9213726196329993e+01 9.8888668783681410e+00 6.2037674905595575e+00 0 0 0
225 1 3 2.3839260472856269e-01 1.0301446149927146e-01 3.1174296211797059e+00 4.9996342958529034e+00 1 0 0
226 1 3 2.4001813547425510e-01 2.3958697843951482e-01 6.9757850990420955e+00 8.2283129143969145e+00 0 0 0
227 1 3 2.4786073997301103e-01 6.7281939605559593e+00 7.2236695921953951e+00 8.7764932623470155e+00 0 0 0
228 1 3 2.2997854239154550e-01 7.3923727601963050e+00 4.4763469167709884e+00 2.8262846836208286e+00 0 0 0
229 1 3 2.4041176245088394e-01 2.6247751692311336e+01 9.7938382961638624e+00 1.4821217152907042e+00 -1 0 0
230 1 3 2.3778533036713728e-01 3.5583966434061509e-01 9.6684282007479538e-01 7.4101198622497915e+00 1 0 0
231 1 3 2.3063042952081628e-01 9.7361241951494204e+00 4.0863548228669833e-02 6.7021467248121809e+00 0 0 0
232 1 3 2.2977762318369552e-01 6.3849119572219442e+00 1.0426800309140230e+01 1.2802535442202974e+00 0 0 0
233 1 3 2.3140322165649652e-01 1.3645793467389113e+01 4.9502652896679571e+00 1.5846331287450077e+00 0 0 0
234 1 3 2.3822779416044221e-01 1.3357822105866514e+01 7.3347665006131599e+00 8.8579790266448502e+00 0 0 0
235 1 3 2.3248744228238916e-01 2.0240931732129191e+01 7.2033288021523152e+00 9.3598681716311631e+00 0 0 0
236 1 3 2.4422031090428073e-01 1.9804749440368539e+01 4.5121854503697110e+00 3.1560883066339791e+00 0 0 0
237 1 3 2.4751191567632921e-01 1.2924679656627108e+01 1.0088236062627768e+01 2.6284426427001124e+00 0 0 0
238 1 3 2.3141203662458856e-01 1.3882523982735027e+01 1.0011439969374600e+00 7.9233550498245098e+00 0 0 0
239 1 3 2.4050711001984776e-01 1.9910952720010304e+01 6.9803731897477794e-01 9.8123310416214657e+00 0 0 0
240 1 3 2.3531889051977797e-01 2.0032770386452356e+01 9.7894333300432450e+00 2.4776456187859979e+00 0 0 0
241 1 4 -2.7018170651227424e-01 2.5390249937448388e+01 4.1027565132580657e+00 8.6235951742842776e-01 -1 0 0
242 1 4 -2.7753063614410017e-01 2.3549305960255815e+01 4.7289604892849031e+00 7.5463621558968068e+00 0 0 0
243 1 4 -2.4897620532450496e-01 4.1162638883730613e+00 4.8620552888090387e+00 8.6647812941858025e+00 0 0 0
244 1 4 -2.8493078173359465e-01 9.5569239985305838e+00 6.9168033001424725e+00 9.9763444891033970e-01 0 0 0
245 1 4 -2.8386217247422757e-01 2.3069071950546430e+01 7.3713487791007015e-01 1.2809461777462539e+00 0 0 0
246 1 4 -2.7111405014979278e-01 3.3062812942396542e+00 1.0563111324438006e+01 9.1192489902056533e+00 0 0 0
247 1 4 -2.2855022830793301e-01 6.9345349915853998e+00 1.3945227803512559e+00 4.2180696142715037e+00 0 1 0
248 1 4 -2.6829119529908735e-01 3.3808630187551127e+00 5.5973912307960871e-01 2.5927664774170003e+00 0 0 0
249 1 4 -2.5796135980605978e-01 1.6107770321700944e+01 7.3149301363275470e+00 3.5349890079295019e+00 0 0 0
250 1 4 -2.5947953828036457e-01 1.0307632172625629e+01 5.1764151968443661e+00 8.7479218072626050e+00 0 0 0
251 1 4 -2.6529402009114256e-01 1.6916357936309964e+01 4.6028184137214865e+00 8.4852825546080215e+00 0 0 0
252 1 4 -2.5933223240392173e-01 2.2028732341298323e+01 6.8579761059188860e+00 1.2407183459745652e+00 0 0 0
253 1 4 -2.7384907592171581e-01 1.0057086319841925e+01 1.1857414760633778e+00 1.5059868643377379e+00 0 0 0
254 1 4 -2.7000475386467049e-01 1.6087190070183148e+01 1.0172419703890174e+01 9.6759333337270679e+00 0 0 0
255 1 4 -2.8283670540040085e-01 2.3039973672809147e+01 1.0009330263948076e+01 7.2448981990955303e+00 0 0 0
256 1 4 -2.5474922029882285e-01 1.7400718738893861e+01 8.8285004150766722e-01 2.4715800030688677e+00 0 0 0
257 1 4 -2.6623374859418092e-01 7.4055348897935669e-01 5.4698746616677383e+00 4.0934908313557483e-01 0 0 0
258 1 4 -2.7079275863595786e-01 2.2806035700874215e+01 5.1589585965267908e+00 5.4372750383660700e+00 0 0 0
259 1 4 -2.7162740751156833e-01 2.9177083071743799e+00 4.8723827234238870e+00 1.0577824368927725e+01 0 0 0
260 1 4 -2.5937323588795802e-01 9.7190643248874622e+00 6.3556215422042452e+00 1.1758544611161371e+01 0 0 -1
261 1 4 -2.7583338509369310e-01 2.2123768122278122e+01 4.2178322557871023e-01 -7.5312650117269964e-01 0 0 0
262 1 4 -2.5900104016230557e-01 3.1953970795090090e+00 1.0966947951483229e+01 1.1305839632801002e+01 0 0 0
263 1 4 -2.3783948688456974e-01 5.4528158347823057e+00 1.9286987250218472e+00 5.7811346078267132e+00 0 1 0
264 1 4 -2.5751737709286615e-01 3.6414291951749136e+00 1.1774380702989126e-01 4.7412490777253007e+00 0 0 0
265 1 4 -2.6260677179115882e-01 1.6425117313296759e+01 6.7287473495135064e+00 5.6463293094450915e+00 0 0 0
266 1 4 -2.5890923642454683e-01 9.6163659790297960e+00 5.3064430501248232e+00 6.6320241913150131e+00 0 0 0
267 1 4 -2.5409433839804496e-01 1.6711651859420098e+01 4.6370275342557230e+00 1.0685941617243790e+01 0 0 0
268 1 4 -2.3977912004968263e-01 2.2329540658904630e+01 5.9708883709610436e+00 -7.8246067485714077e-01 0 0 0
269 1 4 -2.7163989625680629e-01 9.8317628670696067e+00 8.7387992954904736e-01 -6.5815426797747212e-01 0 0 0
270 1 4 -2.4893430062668309e-01 1.6324935815849777e+01 1.0657516478317721e+01 1.1789974777458502e+01 0 0 0
271 1 4 -2.4281471803836416e-01 2.2843607601197000e+01 1.1317175651375878e+01 5.4212740619658044e+00 0 0 0
272 1 4 -2.7354803645564152e-01 1.6214066927348313e+01 9.8827845867634412e-01 4.3638971599364016e+00 0 0 0
273 1 4 -2.3807128293322183e-01 3.5208242262924778e+00 4.9962588694329177e+00 5.3535531792207278e+00 1 0 0
274 1 4 -2.4554382368867478e-01 4.0909535838790645e-01 7.3744352753257276e+00 4.2616450702671775e+00 0 0 0
275 1 4 -2.4601304447335817e-01 6.8566063497793550e+00 7.5654017534248945e+00 -5.3803298880684658e-01 0 0 0
276 1 4 -2.3467176691590919e-01 5.8453231214617922e+00 3.6393464617056264e+00 -9.1056107706055955e-01 0 0 1
277 1 4 -2.4615713486306781e-01 -1.9886716999015827e-02 9.1152661305118947e+00 1.0801754615275893e+01 0 0 0
278 1 4 -2.6594234254742433e-01 2.4654823768958927e+01 1.8115379140096570e+00 1.0729974608444344e+01 0 0 -1
279 1 4 -2.5291347776443546e-01 7.8327801251404958e+00 1.1198866244160582e+01 9.6115441372684600e+00 0 -1 0