ITEM: TIMESTEP
0
ITEM: NUMBER OF ATOMS
672
ITEM: BOX BOUNDS xy xz yz pp pp pp
0.0000000000000000e+00 2.9982000351000000e+01 0.0000000000000000e+00
0.0000000000000000e+00 1.2154000282300000e+01 0.0000000000000000e+00
0.0000000000000000e+00 2.0017000198400002e+01 0.0000000000000000e+00
ITEM: ATOMS id type xs ys zs
1 1 0.142499 0.0703279 0.155517
2 1 0.642499 0.0703279 0.155517
3 1 0.357501 0.929672 0.655517
4 1 0.857501 0.929672 0.655517
5 1 0.392499 0.929672 0.155517
6 1 0.892499 0.929672 0.155517
7 1 0.107501 0.0703279 0.655517
8 1 0.607501 0.0703278 0.655517
9 1 0.142499 0.570327 0.155518
10 1 0.642499 0.570327 0.155518
11 1 0.357501 0.429673 0.655518
12 1 0.857501 0.429673 0.655518
13 1 0.392499 0.429673 0.155518
14 1 0.892499 0.429673 0.155518
15 1 0.107501 0.570327 0.655518
16 1 0.607501 0.570327 0.655518
17 1 0.189027 0.045689 0.151874
18 1 0.689027 0.0456889 0.151874
19 1 0.310973 0.954311 0.651874
20 1 0.810973 0.954311 0.651874
21 1 0.439027 0.954311 0.151874
22 1 0.939027 0.954311 0.151874
23 1 0.0609732 0.0456889 0.651874
24 1 0.560973 0.0456889 0.651874
25 1 0.189027 0.545688 0.151874
26 1 0.689027 0.545688 0.151874
27 1 0.310973 0.454312 0.651874
28 1 0.810973 0.454312 0.651874
29 1 0.439027 0.454312 0.151874
30 1 0.939027 0.454312 0.151874
31 1 0.0609731 0.545688 0.651874
32 1 0.560973 0.545688 0.651874
33 1 0.214979 0.114513 0.109867
34 1 0.714979 0.114513 0.109867
35 1 0.285021 0.885487 0.609867
36 1 0.785021 0.885487 0.609867
37 1 0.464979 0.885487 0.109867
38 1 0.964979 0.885487 0.109867
39 1 0.0350213 0.114513 0.609867
40 1 0.535021 0.114513 0.609867
41 1 0.214979 0.614514 0.109866
42 1 0.714979 0.614515 0.109866
43 1 0.285021 0.385486 0.609866
44 1 0.785021 0.385485 0.609866
45 1 0.464979 0.385486 0.109866
46 1 0.964979 0.385485 0.109866
47 1 0.0350211 0.614515 0.609866
48 1 0.535021 0.614515 0.609866
49 1 0.195097 0.202066 0.0726532
50 1 0.695097 0.202066 0.0726532
51 1 0.304903 0.797934 0.572653
52 1 0.804903 0.797934 0.572653
53 1 0.445097 0.797934 0.0726532
54 1 0.945097 0.797934 0.0726532
55 1 0.0549028 0.202066 0.572653
56 1 0.554903 0.202066 0.572653
57 1 0.195097 0.702065 0.0726532
58 1 0.695097 0.702065 0.0726532
59 1 0.304903 0.297935 0.572653
60 1 0.804903 0.297935 0.572653
61 1 0.445097 0.297935 0.0726532
62 1 0.945097 0.297935 0.0726532
63 1 0.054903 0.702065 0.572653
64 1 0.554903 0.702065 0.572653
65 1 0.148264 0.221897 0.078052
66 1 0.648264 0.221898 0.078052
67 1 0.351736 0.778103 0.578052
68 1 0.851736 0.778102 0.578052
69 1 0.398264 0.778103 0.0780521
70 1 0.898264 0.778102 0.078052
71 1 0.101736 0.221898 0.578052
72 1 0.601736 0.221898 0.578052
73 1 0.148265 0.721898 0.0780514
74 1 0.648265 0.721898 0.0780514
75 1 0.351735 0.278102 0.578051
76 1 0.851735 0.278102 0.578051
77 1 0.398265 0.278102 0.0780514
78 1 0.898265 0.278102 0.0780514
79 1 0.101735 0.721898 0.578051
80 1 0.601735 0.721898 0.578051
81 1 0.120284 0.155157 0.118684
82 1 0.620284 0.155157 0.118684
83 1 0.379716 0.844843 0.618684
84 1 0.879716 0.844843 0.618684
85 1 0.370284 0.844843 0.118684
86 1 0.870284 0.844843 0.118684
87 1 0.129716 0.155157 0.618684
88 1 0.629716 0.155157 0.618684
89 1 0.120283 0.655157 0.118684
90 1 0.620283 0.655157 0.118684
91 1 0.379717 0.344843 0.618684
92 1 0.879717 0.344843 0.618684
93 1 0.370283 0.344843 0.118684
94 1 0.870283 0.344843 0.118684
95 1 0.129717 0.655157 0.618684
96 1 0.629717 0.655157 0.618684
97 1 0.115983 0.998712 0.205837
98 1 0.615983 0.998712 0.205837
99 1 0.384017 0.00128805 0.705837
100 1 0.884017 0.00128807 0.705837
101 1 0.365983 0.00128805 0.205837
102 1 0.865983 0.00128806 0.205837
103 1 0.134017 0.998712 0.705837
104 1 0.634017 0.998712 0.705837
105 1 0.115983 0.498712 0.205837
106 1 0.615983 0.498712 0.205837
107 1 0.384017 0.501288 0.705837
108 1 0.884017 0.501288 0.705837
109 1 0.365983 0.501288 0.205837
110 1 0.865983 0.501288 0.205837
111 1 0.134017 0.498712 0.705837
112 1 0.634017 0.498712 0.705837
113 1 0.264109 0.183056 0.844712
114 1 0.764109 0.183056 0.844712
115 1 0.235891 0.816944 0.344712
116 1 0.735891 0.816944 0.344712
117 1 0.0141091 0.816944 0.844712
118 1 0.514109 0.816944 0.844712
119 1 0.485891 0.183056 0.344712
120 1 0.985891 0.183056 0.344712
121 1 0.264109 0.683056 0.844712
122 1 0.764109 0.683056 0.844712
123 1 0.235891 0.316944 0.344712
124 1 0.735891 0.316944 0.344712
125 1 0.0141092 0.316944 0.844712
126 1 0.514109 0.316944 0.844712
127 1 0.485891 0.683056 0.344712
128 1 0.985891 0.683056 0.344712
129 1 0.311042 0.203575 0.847788
130 1 0.811041 0.203575 0.847788
131 1 0.188959 0.796425 0.347788
132 1 0.688959 0.796425 0.347788
133 1 0.0610415 0.796425 0.847788
134 1 0.561041 0.796425 0.847788
135 1 0.438959 0.203575 0.347788
136 1 0.938959 0.203575 0.347788
137 1 0.311042 0.703575 0.847788
138 1 0.811041 0.703575 0.847788
139 1 0.188959 0.296425 0.347788
140 1 0.688959 0.296425 0.347788
141 1 0.0610415 0.296425 0.847788
142 1 0.561041 0.296425 0.847788
143 1 0.438959 0.703575 0.347788
144 1 0.938959 0.703575 0.347788
145 1 0.336605 0.132803 0.889664
146 1 0.836605 0.132803 0.889664
147 1 0.163395 0.867197 0.389664
148 1 0.663395 0.867197 0.389664
149 1 0.0866046 0.867197 0.889664
150 1 0.586605 0.867197 0.889664
151 1 0.413395 0.132803 0.389664
152 1 0.913395 0.132803 0.389664
153 1 0.336605 0.632803 0.889664
154 1 0.836605 0.632803 0.889664
155 1 0.163395 0.367197 0.389664
156 1 0.663395 0.367197 0.389664
157 1 0.0866046 0.367197 0.889664
158 1 0.586605 0.367197 0.889664
159 1 0.413395 0.632803 0.389664
160 1 0.913395 0.632803 0.389664
161 1 0.317177 0.0426424 0.924853
162 1 0.817177 0.0426424 0.924853
163 1 0.182823 0.957358 0.424853
164 1 0.682823 0.957358 0.424853
165 1 0.0671767 0.957358 0.924853
166 1 0.567177 0.957358 0.924853
167 1 0.432823 0.0426424 0.424853
168 1 0.932823 0.0426424 0.424853
169 1 0.317177 0.542642 0.924853
170 1 0.817177 0.542642 0.924853
171 1 0.182823 0.457358 0.424853
172 1 0.682823 0.457358 0.424853
173 1 0.0671767 0.457358 0.924853
174 1 0.567177 0.457358 0.924853
175 1 0.432823 0.542642 0.424853
176 1 0.932823 0.542642 0.424853
177 1 0.270441 0.0236401 0.918901
178 1 0.770441 0.0236401 0.918901
179 1 0.229559 0.97636 0.418901
180 1 0.729559 0.97636 0.418901
181 1 0.0204413 0.97636 0.918901
182 1 0.520441 0.97636 0.918901
183 1 0.479559 0.0236401 0.418901
184 1 0.979559 0.0236401 0.418901
185 1 0.270441 0.52364 0.918901
186 1 0.770441 0.52364 0.918901
187 1 0.229559 0.47636 0.418901
188 1 0.729559 0.47636 0.418901
189 1 0.0204413 0.47636 0.918901
190 1 0.520441 0.47636 0.918901
191 1 0.479559 0.52364 0.418901
192 1 0.979559 0.52364 0.418901
193 1 0.242776 0.0961172 0.88106
194 1 0.742776 0.0961172 0.88106
195 1 0.257224 0.903883 0.38106
196 1 0.757224 0.903883 0.38106
197 1 0.492776 0.903883 0.88106
198 1 0.992776 0.903883 0.88106
199 1 0.00722417 0.0961172 0.38106
200 1 0.507224 0.0961172 0.38106
201 1 0.242776 0.596117 0.88106
202 1 0.742776 0.596117 0.88106
203 1 0.257224 0.403883 0.38106
204 1 0.757224 0.403883 0.38106
205 1 0.492776 0.403883 0.88106
206 1 0.992776 0.403883 0.88106
207 1 0.00722421 0.596117 0.38106
208 1 0.507224 0.596117 0.38106
209 1 0.231864 0.249882 0.79957
210 1 0.731864 0.249882 0.79957
211 1 0.268136 0.750118 0.29957
212 1 0.768136 0.750118 0.29957
213 1 0.481864 0.750118 0.79957
214 1 0.981864 0.750118 0.79957
215 1 0.0181356 0.249882 0.29957
216 1 0.518136 0.249882 0.29957
217 1 0.231864 0.749882 0.79957
218 1 0.731864 0.749882 0.79957
219 1 0.268136 0.250118 0.29957
220 1 0.768136 0.250118 0.29957
221 1 0.481864 0.250118 0.79957
222 1 0.981864 0.250118 0.79957
223 1 0.0181356 0.749882 0.29957
224 1 0.518136 0.749882 0.29957
225 2 0.211443 0.957371 0.193255
226 2 0.711443 0.957371 0.193255
227 2 0.288557 0.0426293 0.693255
228 2 0.788557 0.0426296 0.693255
229 2 0.461443 0.0426292 0.193255
230 2 0.961443 0.0426294 0.193255
231 2 0.0385571 0.957371 0.693255
232 2 0.538557 0.95737 0.693255
233 2 0.211443 0.457368 0.193256
234 2 0.711444 0.457368 0.193256
235 2 0.288556 0.542632 0.693256
236 2 0.788556 0.542632 0.693256
237 2 0.461443 0.542631 0.193256
238 2 0.961444 0.542632 0.193256
239 2 0.0385565 0.457368 0.693256
240 2 0.538556 0.457368 0.693256
241 2 0.223262 0.272343 0.0269053
242 2 0.723262 0.272343 0.0269053
243 2 0.276738 0.727657 0.526905
244 2 0.776738 0.727657 0.526905
245 2 0.473262 0.727657 0.0269053
246 2 0.973262 0.727657 0.0269053
247 2 0.0267381 0.272343 0.526905
248 2 0.526738 0.272343 0.526905
249 2 0.223262 0.772343 0.0269054
250 2 0.723262 0.772342 0.0269055
251 2 0.276738 0.227657 0.526905
252 2 0.776738 0.227658 0.526905
253 2 0.473262 0.227657 0.0269055
254 2 0.973262 0.227658 0.0269055
255 2 0.0267383 0.772342 0.526905
256 2 0.526738 0.772342 0.526905
257 2 0.0703976 0.175452 0.122024
258 2 0.570398 0.175452 0.122024
259 2 0.429602 0.824548 0.622024
260 2 0.929602 0.824548 0.622024
261 2 0.320398 0.824548 0.122024
262 2 0.820398 0.824548 0.122024
263 2 0.179602 0.175452 0.622024
264 2 0.679602 0.175452 0.622024
265 2 0.0703969 0.675453 0.122024
266 2 0.570397 0.675453 0.122024
267 2 0.429603 0.324547 0.622024
268 2 0.929603 0.324547 0.622024
269 2 0.320397 0.324547 0.122024
270 2 0.820397 0.324547 0.122024
271 2 0.179603 0.675453 0.622024
272 2 0.679603 0.675453 0.622024
273 2 0.334829 0.290096 0.806915
274 2 0.834829 0.290096 0.806916
275 2 0.165171 0.709904 0.306916
276 2 0.665171 0.709904 0.306916
277 2 0.0848291 0.709904 0.806916
278 2 0.584829 0.709904 0.806916
279 2 0.415171 0.290096 0.306916
280 2 0.915171 0.290096 0.306916
281 2 0.334829 0.790096 0.806916
282 2 0.834829 0.790096 0.806916
283 2 0.165171 0.209904 0.306916
284 2 0.665171 0.209904 0.306916
285 2 0.0848291 0.209904 0.806916
286 2 0.584829 0.209904 0.806916
287 2 0.415171 0.790096 0.306916
288 2 0.915171 0.790096 0.306916
289 2 0.345487 0.968364 0.968688
290 2 0.845487 0.968364 0.968688
291 2 0.154513 0.0316358 0.468688
292 2 0.654513 0.0316358 0.468688
293 2 0.0954873 0.0316358 0.968688
294 2 0.595487 0.0316358 0.968688
295 2 0.404513 0.968364 0.468688
296 2 0.904513 0.968364 0.468688
297 2 0.345487 0.468364 0.968688
298 2 0.845487 0.468364 0.968688
299 2 0.154513 0.531636 0.468688
300 2 0.654513 0.531636 0.468688
301 2 0.0954873 0.531636 0.968688
302 2 0.595487 0.531636 0.968688
303 2 0.404513 0.468364 0.468688
304 2 0.904513 0.468364 0.468688
305 2 0.192887 0.0777433 0.88001
306 2 0.692887 0.0777433 0.88001
307 2 0.307113 0.922257 0.38001
308 2 0.807113 0.922257 0.38001
309 2 0.442887 0.922257 0.88001
310 2 0.942887 0.922257 0.88001
311 2 0.0571132 0.0777433 0.38001
312 2 0.557113 0.0777433 0.38001
313 2 0.192887 0.577743 0.88001
314 2 0.692887 0.577743 0.88001
315 2 0.307113 0.422257 0.38001
316 2 0.807113 0.422257 0.38001
317 2 0.442887 0.422257 0.88001
318 2 0.942887 0.422257 0.88001
319 2 0.0571132 0.577743 0.38001
320 2 0.557113 0.577743 0.38001
321 3 0.193473 0.861546 0.194684
322 3 0.693473 0.861546 0.194684
323 3 0.306527 0.138454 0.694684
324 3 0.806527 0.138454 0.694684
325 3 0.443473 0.138454 0.194684
326 3 0.943473 0.138454 0.194684
327 3 0.0565273 0.861546 0.694684
328 3 0.556527 0.861546 0.694684
329 3 0.193473 0.361547 0.194684
330 3 0.693473 0.361548 0.194684
331 3 0.306527 0.638453 0.694684
332 3 0.806527 0.638452 0.694684
333 3 0.443473 0.638453 0.194684
334 3 0.943473 0.638452 0.194684
335 3 0.056527 0.361548 0.694684
336 3 0.556527 0.361548 0.694684
337 3 0.247858 0.984013 0.222951
338 3 0.747858 0.984013 0.222951
339 3 0.252142 0.0159868 0.722951
340 3 0.752142 0.0159868 0.722951
341 3 0.497858 0.0159868 0.222951
342 3 0.997858 0.0159868 0.222951
343 3 0.0021424 0.984013 0.722951
344 3 0.502142 0.984013 0.722951
345 3 0.247857 0.484013 0.222951
346 3 0.747857 0.484013 0.222951
347 3 0.252143 0.515987 0.722951
348 3 0.752143 0.515987 0.722951
349 3 0.497857 0.515987 0.222951
350 3 0.997857 0.515987 0.222951
351 3 0.00214301 0.484013 0.722951
352 3 0.502143 0.484013 0.722951
353 3 0.25968 0.230467 0.00492728
354 3 0.75968 0.230467 0.00492727
355 3 0.24032 0.769533 0.504927
356 3 0.74032 0.769533 0.504927
357 3 0.00967955 0.769533 0.00492728
358 3 0.50968 0.769533 0.00492727
359 3 0.49032 0.230467 0.504927
360 3 0.99032 0.230467 0.504927
361 3 0.25968 0.730467 0.00492731
362 3 0.75968 0.730467 0.00492729
363 3 0.24032 0.269533 0.504927
364 3 0.74032 0.269533 0.504927
365 3 0.00967951 0.269533 0.0049273
366 3 0.50968 0.269533 0.00492729
367 3 0.49032 0.730467 0.504927
368 3 0.99032 0.730467 0.504927
369 3 0.20836 0.368257 0.0122866
370 3 0.70836 0.368257 0.0122866
371 3 0.29164 0.631743 0.512287
372 3 0.79164 0.631743 0.512287
373 3 0.45836 0.631743 0.0122866
374 3 0.95836 0.631743 0.0122866
375 3 0.0416405 0.368257 0.512287
376 3 0.54164 0.368257 0.512287
377 3 0.20836 0.868257 0.0122867
378 3 0.70836 0.868257 0.0122867
379 3 0.29164 0.131743 0.512287
380 3 0.79164 0.131743 0.512287
381 3 0.45836 0.131743 0.0122867
382 3 0.95836 0.131743 0.0122867
383 3 0.0416404 0.868257 0.512287
384 3 0.54164 0.868257 0.512287
385 3 0.0576273 0.27344 0.135922
386 3 0.557627 0.27344 0.135922
387 3 0.442373 0.72656 0.635922
388 3 0.942373 0.72656 0.635922
389 3 0.307627 0.72656 0.135922
390 3 0.807627 0.72656 0.135922
391 3 0.192373 0.27344 0.635922
392 3 0.692373 0.27344 0.635922
393 3 0.0576273 0.77344 0.135922
394 3 0.557627 0.77344 0.135922
395 3 0.442373 0.22656 0.635922
396 3 0.942373 0.226561 0.635922
397 3 0.307627 0.22656 0.135922
398 3 0.807627 0.22656 0.135922
399 3 0.192373 0.77344 0.635922
400 3 0.692373 0.773439 0.635922
401 3 0.0447541 0.0930779 0.111176
402 3 0.544754 0.0930779 0.111176
403 3 0.455246 0.906922 0.611176
404 3 0.955246 0.906922 0.611176
405 3 0.294754 0.906922 0.111176
406 3 0.794754 0.906922 0.111176
407 3 0.205246 0.0930779 0.611176
408 3 0.705246 0.093078 0.611176
409 3 0.0447542 0.593078 0.111176
410 3 0.544754 0.593078 0.111176
411 3 0.455246 0.406922 0.611176
412 3 0.955246 0.406922 0.611176
413 3 0.294754 0.406922 0.111176
414 3 0.794754 0.406922 0.111176
415 3 0.205246 0.593078 0.611176
416 3 0.705246 0.593079 0.611176
417 3 0.316986 0.385835 0.804063
418 3 0.816986 0.385835 0.804063
419 3 0.183014 0.614165 0.304063
420 3 0.683014 0.614165 0.304063
421 3 0.0669856 0.614165 0.804063
422 3 0.566986 0.614165 0.804063
423 3 0.433014 0.385835 0.304063
424 3 0.933014 0.385835 0.304063
425 3 0.316986 0.885835 0.804063
426 3 0.816986 0.885835 0.804063
427 3 0.183014 0.114165 0.304063
428 3 0.683014 0.114165 0.304063
429 3 0.0669856 0.114165 0.804063
430 3 0.566986 0.114165 0.804063
431 3 0.433014 0.885835 0.304063
432 3 0.933014 0.885835 0.304063
433 3 0.372117 0.262655 0.780109
434 3 0.872117 0.262655 0.780109
435 3 0.127883 0.737345 0.280109
436 3 0.627883 0.737345 0.280109
437 3 0.122117 0.737345 0.780109
438 3 0.622117 0.737345 0.780109
439 3 0.377883 0.262655 0.280109
440 3 0.877883 0.262655 0.280109
441 3 0.372117 0.762655 0.780109
442 3 0.872117 0.762655 0.780109
443 3 0.127883 0.237345 0.280109
444 3 0.627883 0.237345 0.280109
445 3 0.122117 0.237345 0.780109
446 3 0.622117 0.237345 0.780109
447 3 0.377883 0.762655 0.280109
448 3 0.877883 0.762655 0.280109
449 3 0.378661 0.0127782 0.998567
450 3 0.878661 0.0127781 0.998567
451 3 0.121339 0.987222 0.498567
452 3 0.621339 0.987222 0.498567
453 3 0.128661 0.987222 0.998567
454 3 0.628661 0.987222 0.998567
455 3 0.371339 0.0127781 0.498567
456 3 0.871339 0.0127781 0.498567
457 3 0.378661 0.512778 0.998567
458 3 0.878661 0.512778 0.998567
459 3 0.121339 0.487222 0.498567
460 3 0.621339 0.487222 0.498567
461 3 0.128661 0.487222 0.998567
462 3 0.628661 0.487222 0.998567
463 3 0.371339 0.512778 0.498567
464 3 0.871339 0.512778 0.498567
465 3 0.333648 0.86746 0.973425
466 3 0.833648 0.86746 0.973425
467 3 0.166352 0.13254 0.473425
468 3 0.666352 0.13254 0.473425
469 3 0.0836476 0.13254 0.973425
470 3 0.583648 0.13254 0.973425
471 3 0.416352 0.86746 0.473425
472 3 0.916352 0.86746 0.473425
473 3 0.333648 0.36746 0.973425
474 3 0.833648 0.36746 0.973425
475 3 0.166352 0.63254 0.473425
476 3 0.666352 0.63254 0.473425
477 3 0.0836476 0.63254 0.973425
478 3 0.583648 0.63254 0.973425
479 3 0.416352 0.36746 0.473425
480 3 0.916352 0.36746 0.473425
481 3 0.179264 0.984149 0.858761
482 3 0.679264 0.98415 0.858761
483 3 0.320736 0.0158503 0.358761
484 3 0.820736 0.0158501 0.358761
485 3 0.429264 0.0158501 0.858761
486 3 0.929264 0.0158504 0.858761
487 3 0.0707357 0.98415 0.358761
488 3 0.570736 0.98415 0.358761
489 3 0.179264 0.484149 0.858761
490 3 0.679264 0.48415 0.858761
491 3 0.320736 0.51585 0.358761
492 3 0.820736 0.51585 0.358761
493 3 0.429264 0.51585 0.858761
494 3 0.929264 0.51585 0.858761
495 3 0.0707357 0.48415 0.358761
496 3 0.570736 0.48415 0.358761
497 3 0.168335 0.157002 0.900803
498 3 0.668336 0.157002 0.900803
499 3 0.331665 0.842998 0.400803
500 3 0.831664 0.842998 0.400803
501 3 0.418336 0.842998 0.900803
502 3 0.918335 0.842998 0.900803
503 3 0.0816645 0.157002 0.400803
504 3 0.581665 0.157002 0.400803
505 3 0.168335 0.657002 0.900803
506 3 0.668336 0.657002 0.900803
507 3 0.331665 0.342998 0.400803
508 3 0.831664 0.342998 0.400803
509 3 0.418336 0.342998 0.900803
510 3 0.918335 0.342998 0.900803
511 3 0.0816645 0.657002 0.400803
512 3 0.581665 0.657002 0.400803
513 4 0.13723 0.969357 0.24902
514 4 0.63723 0.969357 0.24902
515 4 0.36277 0.030643 0.74902
516 4 0.86277 0.030643 0.74902
517 4 0.38723 0.030643 0.24902
518 4 0.88723 0.030643 0.24902
519 4 0.11277 0.969357 0.74902
520 4 0.61277 0.969357 0.74902
521 4 0.13723 0.469357 0.24902
522 4 0.63723 0.469357 0.24902
523 4 0.36277 0.530643 0.74902
524 4 0.86277 0.530643 0.749019
525 4 0.38723 0.530643 0.24902
526 4 0.88723 0.530643 0.24902
527 4 0.11277 0.469357 0.74902
528 4 0.61277 0.469357 0.749019
529 4 0.102248 0.921027 0.18196
530 4 0.602248 0.921027 0.18196
531 4 0.397752 0.0789732 0.68196
532 4 0.897752 0.0789732 0.68196
533 4 0.352248 0.0789733 0.18196
534 4 0.852248 0.0789732 0.18196
535 4 0.147752 0.921027 0.68196
536 4 0.647752 0.921027 0.68196
537 4 0.102248 0.421027 0.18196
538 4 0.602248 0.421027 0.18196
539 4 0.397752 0.578973 0.68196
540 4 0.897752 0.578973 0.68196
541 4 0.352248 0.578973 0.18196
542 4 0.852248 0.578973 0.18196
543 4 0.147752 0.421027 0.68196
544 4 0.647752 0.421027 0.68196
545 4 0.0872554 0.0449058 0.229662
546 4 0.587255 0.0449058 0.229662
547 4 0.412745 0.955094 0.729662
548 4 0.912745 0.955094 0.729662
549 4 0.337255 0.955094 0.229662
550 4 0.837255 0.955094 0.229662
551 4 0.162745 0.0449058 0.729662
552 4 0.662745 0.0449058 0.729662
553 4 0.0872555 0.544906 0.229662
554 4 0.587256 0.544906 0.229662
555 4 0.412744 0.455094 0.729662
556 4 0.912744 0.455094 0.729662
557 4 0.337255 0.455094 0.229662
558 4 0.837256 0.455094 0.229662
559 4 0.162744 0.544906 0.729662
560 4 0.662744 0.544906 0.729662
561 4 0.252213 0.100003 0.10692
562 4 0.752213 0.100003 0.10692
563 4 0.247787 0.899997 0.60692
564 4 0.747787 0.899997 0.60692
565 4 0.502213 0.899997 0.10692
566 4 0.00221299 0.899997 0.10692
567 4 0.997787 0.100003 0.60692
568 4 0.497787 0.100003 0.60692
569 4 0.252213 0.600003 0.10692
570 4 0.752213 0.600003 0.10692
571 4 0.247787 0.399997 0.60692
572 4 0.747787 0.399997 0.60692
573 4 0.502213 0.399997 0.10692
574 4 0.00221278 0.399997 0.10692
575 4 0.997787 0.600003 0.60692
576 4 0.497787 0.600003 0.60692
577 4 0.132998 0.291402 0.0483049
578 4 0.632998 0.291402 0.048305
579 4 0.367002 0.708598 0.548305
580 4 0.867002 0.708598 0.548305
581 4 0.382998 0.708598 0.0483049
582 4 0.882998 0.708598 0.0483049
583 4 0.117002 0.291402 0.548305
584 4 0.617002 0.291402 0.548305
585 4 0.132998 0.791401 0.048305
586 4 0.632998 0.791401 0.048305
587 4 0.367002 0.208599 0.548305
588 4 0.867002 0.208599 0.548305
589 4 0.382998 0.208599 0.048305
590 4 0.882998 0.208599 0.048305
591 4 0.117002 0.791401 0.548305
592 4 0.617002 0.791401 0.548305
593 4 0.248385 0.284379 0.753114
594 4 0.748385 0.284379 0.753114
595 4 0.251615 0.715621 0.253114
596 4 0.751615 0.715621 0.253114
597 4 0.498385 0.715621 0.753114
598 4 0.998385 0.715621 0.753114
599 4 0.00161493 0.284379 0.253114
600 4 0.501615 0.284379 0.253114
601 4 0.248385 0.784379 0.753114
602 4 0.748385 0.784379 0.753114
603 4 0.251615 0.215621 0.253114
604 4 0.751615 0.215621 0.253114
605 4 0.498385 0.215621 0.753114
606 4 0.998385 0.215621 0.753114
607 4 0.00161493 0.784379 0.253114
608 4 0.501615 0.784379 0.253114
609 4 0.202901 0.198511 0.780825
610 4 0.702901 0.198511 0.780825
611 4 0.297099 0.801489 0.280825
612 4 0.797099 0.801489 0.280825
613 4 0.452901 0.801489 0.780825
614 4 0.952901 0.801489 0.780825
615 4 0.0470993 0.198511 0.280825
616 4 0.547099 0.198511 0.280825
617 4 0.202901 0.698511 0.780825
618 4 0.702901 0.698511 0.780825
619 4 0.297099 0.301489 0.280825
620 4 0.797099 0.301489 0.280825
621 4 0.452901 0.301489 0.780825
622 4 0.952901 0.301489 0.780825
623 4 0.0470993 0.698511 0.280825
624 4 0.547099 0.698511 0.280825
625 4 0.215576 0.321633 0.826454
626 4 0.715576 0.321633 0.826454
627 4 0.284424 0.678367 0.326454
628 4 0.784424 0.678367 0.326454
629 4 0.465576 0.678367 0.826454
630 4 0.965576 0.678367 0.826454
631 4 0.0344238 0.321633 0.326454
632 4 0.534424 0.321633 0.326454
633 4 0.215576 0.821633 0.826454
634 4 0.715576 0.821633 0.826454
635 4 0.284424 0.178367 0.326454
636 4 0.784424 0.178367 0.326454
637 4 0.465576 0.178367 0.826454
638 4 0.965576 0.178367 0.826454
639 4 0.0344238 0.821633 0.326454
640 4 0.534424 0.821633 0.326454
641 4 0.373832 0.146567 0.893937
642 4 0.873832 0.146567 0.893937
643 4 0.126168 0.853433 0.393937
644 4 0.626168 0.853433 0.393937
645 4 0.123832 0.853433 0.893937
646 4 0.623832 0.853433 0.893937
647 4 0.376168 0.146567 0.393937
648 4 0.876168 0.146567 0.393937
649 4 0.373832 0.646567 0.893937
650 4 0.873832 0.646567 0.893937
651 4 0.126168 0.353433 0.393937
652 4 0.626168 0.353433 0.393937
653 4 0.123832 0.353433 0.893937
654 4 0.623832 0.353433 0.893937
655 4 0.376168 0.646567 0.393937
656 4 0.876168 0.646567 0.393937
657 4 0.254434 0.951954 0.946028
658 4 0.754434 0.951954 0.946028
659 4 0.245566 0.0480456 0.446028
660 4 0.745566 0.0480456 0.446028
661 4 0.00443354 0.0480456 0.946028
662 4 0.504434 0.0480456 0.946028
663 4 0.495566 0.951954 0.446028
664 4 0.995566 0.951954 0.446028
665 4 0.254434 0.451954 0.946028
666 4 0.754434 0.451954 0.946027
667 4 0.245566 0.548046 0.446028
668 4 0.745566 0.548046 0.446027
669 4 0.00443354 0.548046 0.946028
670 4 0.504434 0.548046 0.946027
671 4 0.495566 0.451954 0.446028
672 4 0.995566 0.451954 0.446028
ITEM: TIMESTEP
1000
ITEM: NUMBER OF ATOMS
672
ITEM: BOX BOUNDS xy xz yz pp pp pp
-8.5156854808708868e-02 2.9871798316862090e+01 -1.2272564890171117e-01
3.9854289536907755e-01 1.1719466214977777e+01 -7.2633240044875244e-02
-2.3160210775292356e-01 2.0248602306152936e+01 -3.5991171953174417e-02
ITEM: ATOMS id type xs ys zs
1 1 0.140999 0.0565985 0.152054
2 1 0.653703 0.0898621 0.168205
3 1 0.368089 0.925527 0.645985
4 1 0.851502 0.934175 0.660117
5 1 0.388957 0.928304 0.15732
6 1 0.895852 0.93809 0.1489
7 1 0.100307 0.0825365 0.644615
8 1 0.604415 0.0772082 0.666375
9 1 0.152013 0.56001 0.162558
10 1 0.642627 0.556957 0.156702
11 1 0.35754 0.428958 0.659301
12 1 0.844756 0.425439 0.665079
13 1 0.390296 0.416134 0.154217
14 1 0.903653 0.442115 0.152628
15 1 0.0953819 0.551963 0.663893
16 1 0.602314 0.576041 0.651317
17 1 0.188132 0.0376422 0.145299
18 1 0.70003 0.0742542 0.1538
19 1 0.320828 0.94485 0.633501
20 1 0.805269 0.966453 0.651161
21 1 0.435813 0.95215 0.153695
22 1 0.942979 0.966158 0.146909
23 1 0.0530564 0.0603918 0.637961
24 1 0.558222 0.0447472 0.653411
25 1 0.197497 0.533951 0.153632
26 1 0.690553 0.534434 0.148675
27 1 0.310182 0.445324 0.654541
28 1 0.79875 0.449879 0.656203
29 1 0.438148 0.435804 0.146425
30 1 0.950196 0.475541 0.152805
31 1 0.0485503 0.535002 0.66588
32 1 0.555276 0.553083 0.645893
33 1 0.211735 0.102054 0.0957187
34 1 0.718566 0.14304 0.102668
35 1 0.301493 0.863084 0.588053
36 1 0.77614 0.89808 0.609995
37 1 0.461736 0.892846 0.105233
38 1 0.970836 0.894668 0.108054
39 1 0.0263399 0.130572 0.594966
40 1 0.537841 0.102618 0.599276
41 1 0.219206 0.594203 0.100746
42 1 0.712189 0.607849 0.101397
43 1 0.284197 0.36248 0.615882
44 1 0.775784 0.386307 0.605063
45 1 0.460327 0.359921 0.101306
46 1 0.978483 0.41313 0.108228
47 1 0.0209548 0.609799 0.627593
48 1 0.531506 0.62183 0.598964
49 1 0.190835 0.201301 0.0643504
50 1 0.693985 0.22903 0.0663811
51 1 0.325354 0.771815 0.554169
52 1 0.791582 0.804063 0.570072
53 1 0.443974 0.799486 0.0671531
54 1 0.949801 0.809702 0.0661984
55 1 0.0480987 0.227046 0.561082
56 1 0.555211 0.212371 0.575772
57 1 0.198508 0.688029 0.0660944
58 1 0.690262 0.700373 0.0653683
59 1 0.305898 0.287278 0.569753
60 1 0.79758 0.290303 0.571524
61 1 0.441475 0.255989 0.0742055
62 1 0.962304 0.31741 0.0699654
63 1 0.0404047 0.700197 0.585769
64 1 0.555062 0.704469 0.558465
65 1 0.144998 0.23371 0.0799836
66 1 0.647736 0.244011 0.082232
67 1 0.371451 0.759653 0.569266
68 1 0.836477 0.761073 0.582731
69 1 0.398067 0.767065 0.0734022
70 1 0.902902 0.787237 0.06555
71 1 0.0961439 0.234503 0.563255
72 1 0.598977 0.249871 0.595712
73 1 0.155182 0.726282 0.0898659
74 1 0.64372 0.723369 0.0786233
75 1 0.35309 0.273537 0.578847
76 1 0.840167 0.256564 0.593763
77 1 0.395883 0.229398 0.0893932
78 1 0.918017 0.276121 0.079717
79 1 0.0874668 0.71503 0.587485
80 1 0.600862 0.735535 0.570906
81 1 0.120024 0.160876 0.124704
82 1 0.62698 0.168119 0.129519
83 1 0.394867 0.83922 0.613082
84 1 0.867082 0.832731 0.621231
85 1 0.369625 0.839729 0.114009
86 1 0.875587 0.85009 0.110243
87 1 0.122426 0.173955 0.611521
88 1 0.625789 0.17382 0.635024
89 1 0.127753 0.652258 0.130238
90 1 0.620074 0.64844 0.123809
91 1 0.379651 0.337011 0.623175
92 1 0.868122 0.329968 0.636262
93 1 0.368742 0.310992 0.124846
94 1 0.887323 0.338986 0.120221
95 1 0.116781 0.639577 0.624148
96 1 0.625478 0.663638 0.615323
97 1 0.11248 0.980689 0.199627
98 1 0.628962 0.000347462 0.213748
99 1 0.396008 0.992632 0.699673
100 1 0.881352 0.00362441 0.708564
101 1 0.357377 0.986156 0.207471
102 1 0.86536 0.00381858 0.199714
103 1 0.129446 0.00213358 0.690307
104 1 0.630202 0.987531 0.709188
105 1 0.127246 0.477665 0.212739
106 1 0.612973 0.485237 0.204607
107 1 0.383429 0.50662 0.711015
108 1 0.873757 0.501521 0.714323
109 1 0.360614 0.508002 0.188479
110 1 0.870663 0.503518 0.198655
111 1 0.128901 0.471442 0.703441
112 1 0.630977 0.50819 0.702628
113 1 0.278965 0.157557 0.827431
114 1 0.772821 0.168401 0.84059
115 1 0.230532 0.820977 0.343059
116 1 0.727813 0.832978 0.35428
117 1 0.0226515 0.807041 0.839972
118 1 0.528909 0.834058 0.842479
119 1 0.473988 0.185387 0.328209
120 1 0.970458 0.183365 0.35007
121 1 0.280469 0.672582 0.842699
122 1 0.7773 0.677836 0.844142
123 1 0.223892 0.329115 0.347058
124 1 0.723901 0.320625 0.34568
125 1 0.0319323 0.320488 0.838039
126 1 0.528626 0.310525 0.844173
127 1 0.471859 0.687545 0.339663
128 1 0.963598 0.678424 0.366437
129 1 0.327377 0.173639 0.834197
130 1 0.819061 0.199785 0.853813
131 1 0.184011 0.793775 0.351184
132 1 0.679506 0.808688 0.351091
133 1 0.0701981 0.789209 0.844847
134 1 0.575506 0.813077 0.844352
135 1 0.426643 0.20634 0.332513
136 1 0.924007 0.203992 0.355842
137 1 0.327278 0.690984 0.856019
138 1 0.823174 0.716512 0.854581
139 1 0.177211 0.308373 0.352189
140 1 0.677429 0.298206 0.351156
141 1 0.0792611 0.30108 0.839255
142 1 0.576801 0.298622 0.85175
143 1 0.424269 0.697723 0.349128
144 1 0.916006 0.692564 0.362861
145 1 0.348753 0.106329 0.883153
146 1 0.843351 0.128962 0.897909
147 1 0.156988 0.869462 0.390119
148 1 0.653183 0.879167 0.393393
149 1 0.0935671 0.859396 0.890128
150 1 0.600606 0.876666 0.893715
151 1 0.402941 0.138483 0.381305
152 1 0.902508 0.1281 0.40317
153 1 0.349039 0.604362 0.897545
154 1 0.846847 0.648328 0.903265
155 1 0.154451 0.377748 0.400303
156 1 0.650819 0.370781 0.392537
157 1 0.105123 0.370433 0.885072
158 1 0.597616 0.372531 0.898517
159 1 0.402276 0.627268 0.39533
160 1 0.888017 0.613085 0.398239
161 1 0.325906 0.0236992 0.924069
162 1 0.823397 0.0221734 0.922272
163 1 0.180959 0.9586 0.428255
164 1 0.669891 0.980843 0.429268
165 1 0.0745439 0.959909 0.923533
166 1 0.579561 0.969662 0.932371
167 1 0.425031 0.0555587 0.423266
168 1 0.925871 0.0443316 0.44152
169 1 0.322139 0.51674 0.929356
170 1 0.824904 0.56009 0.940009
171 1 0.176404 0.461095 0.441651
172 1 0.668131 0.473003 0.426546
173 1 0.0858685 0.465704 0.921565
174 1 0.572231 0.451997 0.937997
175 1 0.427337 0.550337 0.434418
176 1 0.907363 0.52241 0.438761
177 1 0.27974 0.00645521 0.908831
178 1 0.780673 0.981439 0.897351
179 1 0.227912 0.988875 0.419639
180 1 0.714802 0.0176223 0.410909
181 1 0.0272988 0.966114 0.913101
182 1 0.532929 0.996281 0.922689
183 1 0.470713 0.032638 0.409585
184 1 0.972698 0.0313486 0.429493
185 1 0.276086 0.501721 0.913611
186 1 0.779315 0.52333 0.925005
187 1 0.222813 0.481187 0.428284
188 1 0.71484 0.496548 0.414353
189 1 0.03941 0.482395 0.91611
190 1 0.524591 0.462579 0.927013
191 1 0.472725 0.523602 0.414092
192 1 0.955318 0.513343 0.434893
193 1 0.253661 0.0676797 0.86144
194 1 0.751297 0.0628733 0.86641
195 1 0.25313 0.914713 0.377993
196 1 0.746493 0.938578 0.383173
197 1 0.505979 0.923544 0.878623
198 1 0.998377 0.892933 0.875697
199 1 0.997457 0.0992003 0.384479
200 1 0.498226 0.101372 0.365284
201 1 0.253472 0.581486 0.871011
202 1 0.753729 0.587937 0.878298
203 1 0.249501 0.412738 0.385142
204 1 0.744032 0.423886 0.376316
205 1 0.501147 0.387413 0.882444
206 1 0.0102659 0.398041 0.883937
207 1 0.985629 0.579704 0.395026
208 1 0.497368 0.594334 0.367313
209 1 0.250677 0.243875 0.787109
210 1 0.744689 0.248619 0.793921
211 1 0.261356 0.73998 0.299896
212 1 0.760467 0.756511 0.312923
213 1 0.496812 0.759246 0.800472
214 1 0.995615 0.727572 0.7922
215 1 0.997143 0.262372 0.300574
216 1 0.501046 0.267294 0.282152
217 1 0.254087 0.745376 0.789713
218 1 0.744677 0.743658 0.797798
219 1 0.244861 0.251357 0.293181
220 1 0.755464 0.236873 0.305372
221 1 0.505632 0.246142 0.784872
222 1 0.999148 0.234759 0.803137
223 1 0.993577 0.767869 0.328253
224 1 0.496264 0.768439 0.288992