LAMMPS data file via write_data, version 15 Apr 2020, timestep = 80000

672 atoms
4 atom types

2.8638742160202213e-01 2.9695612929398209e+01 xlo xhi
5.4799101543035533e-01 1.1606009266869879e+01 ylo yhi
1.2097641680357540e-02 2.0004902556719522e+01 zlo zhi
1.6435702360225132e-01 -5.4718631977844649e-02 3.4122022957617443e-01 xy xz yz

Masses

1 12.0107
2 14.0067
3 15.9994
4 1.00794

Atoms # full

1 1 1 7.1290332197559564e-02 4.4719731970444538e+00 1.3343371587398432e+00 2.8898551777207118e+00 0 0 0
2 1 1 6.1812913103538536e-02 1.9146742421280383e+01 1.2912616418240501e+00 3.2420526505602929e+00 0 0 0
3 1 1 7.2402667170888724e-02 1.0703386017651095e+01 1.1041258895095940e+01 1.3045969268069571e+01 0 0 0
4 1 1 8.2869883895468760e-02 2.5655760596357787e+01 1.1115242607150423e+01 1.3294638761860044e+01 0 0 0
5 1 1 8.7319944294855206e-02 1.2057707283842257e+01 1.1010920439071175e+01 3.1136887146999856e+00 0 0 0
6 1 1 7.4838017833138815e-02 2.6470230456474546e+01 1.0754130714438515e+01 3.2156738238908154e+00 0 0 0
7 1 1 6.3979269665044511e-02 3.3761823899373380e+00 1.5413697442691088e+00 1.3285070207630980e+01 0 0 0
8 1 1 6.8535730907173714e-02 1.8138976710587436e+01 1.5813677166868070e+00 1.3245858429117394e+01 0 0 0
9 1 1 6.3286247320573627e-02 4.4404426415873024e+00 6.7806902716088109e+00 3.2743360111047330e+00 0 0 0
10 1 1 7.1846384922314155e-02 1.9165547423114273e+01 6.9816327633408228e+00 3.1822707669580197e+00 0 0 0
11 1 1 7.8680037875417108e-02 1.0760018600842956e+01 5.5828053659391603e+00 1.3333357155601249e+01 0 0 0
12 1 1 8.7171819160716479e-02 2.5708608098726373e+01 5.4703912726320887e+00 1.3051793080992397e+01 0 0 0
13 1 1 6.2250962297869132e-02 1.1925029626647319e+01 5.4939423299449119e+00 3.1855303973396731e+00 0 0 0
14 1 1 6.0884077502917841e-02 2.6567678850507257e+01 5.2374067866461749e+00 3.0864316341111917e+00 0 0 0
15 1 1 7.3931473750808968e-02 3.4941864872932733e+00 6.9363292950531203e+00 1.3297256149012657e+01 0 0 0
16 1 1 7.1814557923961464e-02 1.8159000090214747e+01 7.3248965458986248e+00 1.3117629992239754e+01 0 0 0
17 1 1 7.0232678061996665e-02 5.8739520335458542e+00 1.0322129147587029e+00 2.9549851809417413e+00 0 0 0
18 1 1 4.5875299445883325e-02 2.0505613288524639e+01 8.5030471571580846e-01 3.1371469755287267e+00 0 0 0
19 1 1 6.6645164652821887e-02 9.3423695593409128e+00 1.1357302539923730e+01 1.3099765179555071e+01 0 0 0
20 1 1 5.3856448605293622e-02 2.4281056477410605e+01 1.1427207202028423e+01 1.3029517302243294e+01 0 0 0
21 1 1 7.1127140001709860e-02 1.3431067643825971e+01 1.1415164831919146e+01 3.0658061713490699e+00 0 0 0
22 1 1 7.3658224118673732e-02 2.7914727729181866e+01 1.0980100046438691e+01 3.2102980849839060e+00 0 0 0
23 1 1 6.3422100308352838e-02 2.0100057538254976e+00 1.1954655983957223e+00 1.3110931014574666e+01 0 0 0
24 1 1 6.7693394042423999e-02 1.6771813492673406e+01 1.2505781220932879e+00 1.3139143316550934e+01 0 0 0
25 1 1 5.1666488287191531e-02 5.8090507000438505e+00 6.5023753880161728e+00 3.0950306662166209e+00 0 0 0
26 1 1 6.7221578642496962e-02 2.0507992858220309e+01 6.6307327445363633e+00 3.0004342608188543e+00 0 0 0
27 1 1 6.8372584040774509e-02 9.3704154063546667e+00 5.8765632548379116e+00 1.3126080427522949e+01 0 0 0
28 1 1 5.6258724589563533e-02 2.4374162291121795e+01 5.9310610889079785e+00 1.2910003379734942e+01 0 0 0
29 1 1 6.7818279752151683e-02 1.3344422340291686e+01 5.6277018140855066e+00 2.9387340856227029e+00 0 0 0
30 1 1 5.6342852961909634e-02 2.7952219659234533e+01 5.6312127513584507e+00 3.0067979686969792e+00 0 0 0
31 1 1 4.7791219654939571e-02 2.0780597614255654e+00 6.6638324482226867e+00 1.3176979141033407e+01 0 0 0
32 1 1 6.0589734988527613e-02 1.6750221387507978e+01 7.1195205661047618e+00 1.3066598620826445e+01 0 0 0
33 1 1 -1.9981288066365288e-02 6.6444897192743433e+00 1.8274263311929761e+00 2.0379471461796963e+00 0 0 0
34 1 1 -6.1208071598994496e-02 2.1263834374185063e+01 1.4897043658930622e+00 2.0586193414230864e+00 0 0 0
35 1 1 -2.9536604748185650e-02 8.4871849401947426e+00 1.0585703309952258e+01 1.2224702872352303e+01 0 0 0
36 1 1 -5.1778685511619821e-02 2.3590455355086444e+01 1.0657922001075121e+01 1.2062455158967374e+01 0 0 0
37 1 1 -5.4634113681432533e-02 1.4144291084614474e+01 1.0579570105031939e+01 2.1224208599313674e+00 0 0 0
38 1 1 -4.0088878333671224e-02 2.8700292312113753e+01 1.0266052659031502e+01 2.2580204772135213e+00 0 0 0
39 1 1 -3.9805181824837221e-02 1.3614201975081324e+00 1.9661771872588902e+00 1.2081511110700974e+01 0 0 0
40 1 1 -4.7851435682600696e-02 1.6076282394858435e+01 1.8984376009026409e+00 1.2058512696597383e+01 0 0 0
41 1 1 -5.1138731696905096e-02 6.5488170709509967e+00 7.3295118472378036e+00 2.1782924110815740e+00 0 0 0
42 1 1 -3.6775141860111021e-02 2.1251570287456108e+01 7.4228187022839629e+00 2.1121385978769913e+00 0 0 0
43 1 1 -4.9605363881897610e-02 8.6114523716447060e+00 5.1047794987285027e+00 1.2184848181283938e+01 0 0 0
44 1 1 -5.5365268261671999e-02 2.3523531098789864e+01 5.2360452413309719e+00 1.1991511638777023e+01 0 0 0
45 1 1 -3.0004167424672202e-02 1.3791784803361834e+01 4.9269818553692657e+00 1.7796401941871669e+00 0 0 0
46 1 1 -6.6981034227994882e-02 2.8673419049977603e+01 4.7886137351440468e+00 2.0994471718105285e+00 0 0 0
47 1 1 -4.0393000774600146e-02 1.3573198906823842e+00 7.4504760812122983e+00 1.2258489479591054e+01 0 0 0
48 1 1 -6.4529317208537468e-02 1.6103910360979512e+01 7.9191512248487586e+00 1.2140417879382142e+01 0 0 0
49 1 1 1.0796932845709893e-01 6.1211268483912873e+00 2.8465784032825487e+00 1.2559545170549551e+00 0 0 0
50 1 1 1.0396356033358548e-01 2.0807541525074637e+01 2.5556869235308333e+00 1.2651098435952262e+00 0 0 0
51 1 1 9.8235016245439372e-02 9.0046678718670972e+00 9.5333956048857811e+00 1.1417130993193485e+01 0 0 0
52 1 1 1.1530501892432553e-01 2.4314718320291334e+01 9.7276243018175030e+00 1.1262897233302168e+01 0 0 0
53 1 1 1.1188470117349780e-01 1.3558788440657780e+01 9.5144006277982438e+00 1.3728847507534152e+00 0 0 0
54 1 1 1.1880327113737191e-01 2.8049316623136466e+01 9.3106175362386079e+00 1.4171883809576975e+00 0 0 0
55 1 1 9.8814077067833794e-02 1.9781874915634494e+00 3.0359460612308315e+00 1.1339184982843523e+01 0 0 0
56 1 1 1.0468715193182450e-01 1.6619259730860559e+01 2.9671336746508645e+00 1.1313290327557707e+01 0 0 0
57 1 1 1.0462584350417767e-01 6.0529688231666832e+00 8.4898915483170239e+00 1.5189453089350016e+00 0 0 0
58 1 1 1.0288011666320404e-01 2.0699951505144369e+01 8.4555322566239219e+00 1.2742497710581457e+00 0 0 0
59 1 1 1.1066011798886963e-01 9.2519401378017108e+00 4.0179139744051184e+00 1.1515770085064620e+01 0 0 0
60 1 1 1.1427458267300632e-01 2.4018191729502117e+01 4.0670742470438039e+00 1.1374547957753341e+01 0 0 0
61 1 1 1.1697404807913414e-01 1.3051188577057607e+01 3.8556208633715809e+00 1.1817768798136343e+00 0 0 0
62 1 1 1.1209264011370274e-01 2.8105033393645353e+01 3.6999645473762754e+00 1.3612849820473374e+00 0 0 0
63 1 1 1.2680969947613019e-01 2.0173835994154210e+00 8.4615078323144228e+00 1.1425744196476350e+01 0 0 0
64 1 1 1.0505634682247085e-01 1.6779164269846724e+01 8.8629854537013379e+00 1.1280987722805728e+01 0 0 0
65 1 1 -4.8482139412331544e-02 4.7359669536112499e+00 3.2156025727822097e+00 1.4082058900880572e+00 0 0 0
66 1 1 -4.4340222872167198e-02 1.9504578767878549e+01 3.0026966847208807e+00 1.5776190128176464e+00 0 0 0
67 1 1 -3.9691741461048292e-02 1.0352823513642234e+01 9.1501743738266246e+00 1.1535444381247309e+01 0 0 0
68 1 1 -2.4308302899717905e-02 2.5611151852981372e+01 9.2671669464347612e+00 1.1706340556636855e+01 0 0 0
69 1 1 -3.9780961015894567e-02 1.2244204522209381e+01 9.0939258309797690e+00 1.7241067773414605e+00 0 0 0
70 1 1 -4.9842460787251811e-02 2.6679899935126155e+01 8.9278350460300988e+00 1.6531579850261029e+00 0 0 0
71 1 1 -4.1502104219336422e-02 3.3315470805294436e+00 3.3286990544483013e+00 1.1560086273775948e+01 0 0 0
72 1 1 -4.2956889213019503e-02 1.7991241674435123e+01 3.3007140475959096e+00 1.1595489781699786e+01 0 0 0
73 1 1 -5.5824051546392542e-02 4.6185357519087145e+00 8.7318007205313446e+00 1.6915547028807787e+00 0 0 0
74 1 1 -4.0634063738374998e-02 1.9340036370744869e+01 8.7689998803480940e+00 1.5533196817786099e+00 0 0 0
75 1 1 -5.1707977301670580e-02 1.0609179242140673e+01 3.6960039112576775e+00 1.1848775301037135e+01 0 0 0
76 1 1 -4.4557120822807939e-02 2.5312591297840825e+01 3.5573388622729940e+00 1.1678917862023747e+01 0 0 0
77 1 1 -4.9562798157827756e-02 1.1704790297920303e+01 3.5873951709676142e+00 1.6130132555455814e+00 0 0 0
78 1 1 -3.8051014102255212e-02 2.6720664193866316e+01 3.3739301861538018e+00 1.6015614788563011e+00 0 0 0
79 1 1 -3.7656153025243874e-02 3.4031947865382071e+00 8.7112607093910590e+00 1.1638219017294878e+01 0 0 0
80 1 1 -4.4668015205627049e-02 1.8162999514469576e+01 9.2046563851019911e+00 1.1541693135254208e+01 0 0 0
81 1 1 8.2322619087044052e-02 3.8802641397125908e+00 2.5113997333682772e+00 2.2480523343349854e+00 0 0 0
82 1 1 6.0433139646738014e-02 1.8626562249811737e+01 2.3926860422608716e+00 2.5292880337475832e+00 0 0 0
83 1 1 8.8236922298795623e-02 1.1294383220955023e+01 9.9979145947874137e+00 1.2237731362875643e+01 0 0 0
84 1 1 9.0620962141340022e-02 2.6364087442659685e+01 1.0089592683327064e+01 1.2567936411143995e+01 0 0 0
85 1 1 7.6220564281520131e-02 1.1393903233217118e+01 9.9188158180601018e+00 2.4977070857780030e+00 0 0 0
86 1 1 6.4605788875249759e-02 2.5835704899985128e+01 9.7130537853140435e+00 2.4393093647223458e+00 0 0 0
87 1 1 6.2262754329708056e-02 4.0498721426489723e+00 2.5414073756081681e+00 1.2541834334529236e+01 0 0 0
88 1 1 8.5335868379518620e-02 1.8833026983659462e+01 2.5812941245445176e+00 1.2491067395623942e+01 0 0 0
89 1 1 7.3307851390129686e-02 3.8602070724921349e+00 7.9166614329208738e+00 2.6124992203545103e+00 0 0 0
90 1 1 6.3029582178205118e-02 1.8547996159010047e+01 8.1077800770481776e+00 2.5136176304971150e+00 0 0 0
91 1 1 7.2182744351600714e-02 1.1439454641846835e+01 4.5386127905492550e+00 1.2680296771610820e+01 0 0 0
92 1 1 7.5081003479509495e-02 2.6287535404745508e+01 4.3104935331261540e+00 1.2429409250890050e+01 0 0 0
93 1 1 6.9284798603161363e-02 1.1127082093816663e+01 4.4918575266578920e+00 2.5564929608846492e+00 0 0 0
94 1 1 8.1446713001744928e-02 2.5867150880478224e+01 4.2131249484946611e+00 2.3278629899222611e+00 0 0 0
95 1 1 7.3804052874410039e-02 4.1341261538213434e+00 7.9684947406818738e+00 1.2553120593385314e+01 0 0 0
96 1 1 8.2176095887947553e-02 1.8886135602975440e+01 8.3389233389539790e+00 1.2409111822096063e+01 0 0 0
97 1 1 -2.6130236257141559e-01 3.6007947987788569e+00 1.1616412446674639e+01 3.7301292759396651e+00 0 0 0
98 1 1 -2.6016870709630280e-01 1.8362877046942785e+01 1.1595985311518886e+01 4.2371680403121186e+00 0 0 0
99 1 1 -2.5004973431277155e-01 1.1541847750171238e+01 7.8625186279834891e-01 1.3922939631781013e+01 0 0 0
100 1 1 -2.7372684366530231e-01 2.6379281660817060e+01 9.3445369092717667e-01 1.4216608866953720e+01 0 0 0
101 1 1 -2.7255608953097427e-01 1.0976828981606065e+01 8.6180360179254623e-01 3.9862595036781348e+00 0 0 0
102 1 1 -2.6177771263179911e-01 2.5667286633199740e+01 1.1473069733558050e+01 4.3345780406730920e+00 0 -1 0
103 1 1 -2.6169134669308114e-01 4.4771681571568518e+00 1.1764854594645271e+01 1.4241668808967763e+01 0 0 0
104 1 1 -2.5993448635066024e-01 1.9000574898672276e+01 8.4575767547564229e-01 1.4342312886238830e+01 0 1 0
105 1 1 -2.6698566954828701e-01 3.6119926962919253e+00 5.7733427438332798e+00 4.1717082556746989e+00 0 0 0
106 1 1 -2.5470509572439676e-01 1.8370091197900397e+01 6.1261940035522331e+00 4.1672531032719080e+00 0 0 0
107 1 1 -2.5544165365030069e-01 1.1645917589242545e+01 6.4860878519934131e+00 1.4253233040788677e+01 0 0 0
108 1 1 -2.8096690633620691e-01 2.6619264700496466e+01 6.4372265774845872e+00 1.3804441931485407e+01 0 0 0
109 1 1 -2.5351620213317755e-01 1.1359487861304210e+01 6.4349044722094755e+00 4.2814019277753426e+00 0 0 0
110 1 1 -2.4881085039466350e-01 2.5740482521295220e+01 5.9786641103315024e+00 4.1614922271772699e+00 0 0 0
111 1 1 -2.7228249619386913e-01 4.3879004904598160e+00 6.0920037360037327e+00 1.4243010122748396e+01 0 0 0
112 1 1 -2.5706402214738733e-01 1.8925029831088100e+01 6.4590717791633114e+00 1.4111980378458421e+01 0 0 0
113 1 1 6.8424417942450480e-02 8.1154324916690506e+00 2.9731534560516710e+00 1.6915280419653314e+01 0 0 0
114 1 1 6.5445902350994220e-02 2.3012307033787774e+01 2.8690499236212466e+00 1.6804737801148597e+01 0 0 0
115 1 1 6.4051430877028984e-02 7.2211538796845920e+00 9.6087139920906139e+00 7.0565731540796000e+00 0 0 0
116 1 1 6.7220323036632681e-02 2.1935627083612253e+01 9.6486162599409937e+00 7.0926490754517344e+00 0 0 0
117 1 1 6.2810648815997516e-02 9.3129863151273362e-01 9.5318686334255425e+00 1.6874612721260071e+01 0 0 0
118 1 1 7.7382325760888937e-02 1.5691453161817860e+01 1.0037436348675500e+01 1.6959482480878080e+01 0 0 0
119 1 1 7.4476307699431046e-02 1.4362559335074714e+01 2.6294122697359938e+00 7.0298652412704987e+00 0 0 0
120 1 1 7.2566582803295976e-02 2.9033454224087897e+01 2.6028346611701272e+00 6.7670426058872861e+00 0 0 0
121 1 1 5.8990871602085743e-02 8.5735887164703524e+00 8.4321806044971588e+00 1.6819391089609852e+01 0 0 0
122 1 1 7.9439949529326620e-02 2.3261615047852104e+01 8.3158973288292586e+00 1.6764506075847734e+01 0 0 0
123 1 1 6.1223036081625749e-02 6.9954401847735648e+00 4.1116975818861032e+00 7.0135746222687168e+00 0 0 0
124 1 1 7.0460865503414044e-02 2.1586894589619348e+01 4.1406265715105253e+00 6.8357702913928158e+00 0 0 0
125 1 1 7.4631277322000061e-02 1.0477693665115804e+00 4.2196421818976688e+00 1.6807921736616606e+01 0 0 0
126 1 1 6.2679547518544376e-02 1.5671392432734903e+01 4.7244034554790950e+00 1.6862119209612302e+01 0 0 0
127 1 1 5.7155791271106107e-02 1.4277581217085583e+01 8.2798194858737233e+00 6.9984718571974520e+00 0 0 0
128 1 1 7.1638437461249246e-02 2.9119874174409006e+01 8.0213917786998294e+00 6.9749276858255449e+00 0 0 0
129 1 1 7.4879484157541740e-02 9.5236240849179659e+00 3.2019533879764470e+00 1.6934597751888738e+01 0 0 0
130 1 1 6.4159160634599019e-02 2.4399840182978608e+01 3.0896658686633685e+00 1.6803519781546605e+01 0 0 0
131 1 1 6.9249519125142739e-02 5.8034393795568757e+00 9.4407738516722404e+00 7.1877205137874567e+00 0 0 0
132 1 1 7.9252737883742513e-02 2.0543955939886931e+01 9.4784645879936189e+00 7.0665072429710882e+00 0 0 0
133 1 1 7.5431445060903046e-02 2.3117086079141638e+00 9.3346642032694422e+00 1.7081533969280578e+01 0 0 0
134 1 1 6.9234727017851480e-02 1.7109672301354259e+01 9.8891297317648714e+00 1.7040976184627809e+01 0 0 0
135 1 1 7.3239033396721123e-02 1.2982568823376758e+01 2.9510364258004298e+00 7.0728727108790226e+00 0 0 0
136 1 1 5.5702137929173764e-02 2.7619210768064466e+01 2.7833965788062991e+00 6.9441299487429822e+00 0 0 0
137 1 1 5.2876086321352239e-02 9.9741445480293986e+00 8.6931924919534342e+00 1.6971011060821141e+01 0 0 0
138 1 1 7.3016726635002749e-02 2.4694119191709014e+01 8.4625733227732649e+00 1.6734328785549032e+01 0 0 0
139 1 1 7.9513094649035623e-02 5.5961529666521042e+00 3.8414532827664325e+00 7.0422902331688686e+00 0 0 0
140 1 1 8.1290961462794187e-02 2.0192092419633397e+01 4.0230269361432764e+00 6.9836786168771461e+00 0 0 0
141 1 1 7.5381129730504773e-02 2.4429142059776909e+00 4.0470812555495908e+00 1.7009301887890217e+01 0 0 0
142 1 1 6.4956826398847339e-02 1.7042783155646919e+01 4.3085851135695705e+00 1.6944872044904301e+01 0 0 0
143 1 1 6.1938910984094118e-02 1.2863615443492625e+01 8.4286672845641242e+00 6.9834569961053532e+00 0 0 0
144 1 1 6.1392915013969485e-02 2.7713774270953699e+01 8.2612286086268831e+00 6.9999551106209514e+00 0 0 0
145 1 1 -3.0469479922013105e-02 1.0240610814060464e+01 2.3591098699860007e+00 1.7846503076670352e+01 0 0 0
146 1 1 -4.1179342997636564e-02 2.5101631859240364e+01 2.2128358271602737e+00 1.7689605892637921e+01 0 0 0
147 1 1 -2.8508416020525260e-02 5.1773572953557716e+00 1.0265488371632177e+01 8.1555647699069151e+00 0 0 0
148 1 1 -4.1550305090168820e-02 1.9837936126683896e+01 1.0294779956717294e+01 8.0147231000385162e+00 0 0 0
149 1 1 -3.5195899847228318e-02 3.0114172228930052e+00 1.0315264318318507e+01 1.7901531512626867e+01 0 0 0
150 1 1 -3.5282529367698441e-02 1.7858980804780195e+01 1.0653193922099938e+01 1.7977531370564272e+01 0 0 0
151 1 1 -5.5326667463020063e-02 1.2171594642147767e+01 2.0930145547266008e+00 7.8859463211705974e+00 0 0 0
152 1 1 -4.1119200499583695e-02 2.6953550103490269e+01 2.0385815884739444e+00 7.9238759123811180e+00 0 0 0
153 1 1 -4.7680774270177972e-02 1.0646614190633873e+01 7.9157420211510932e+00 1.7952994625478070e+01 0 0 0
154 1 1 -3.7595265814315063e-02 2.5385534835945894e+01 7.6427502400033731e+00 1.7722101384260078e+01 0 0 0
155 1 1 -4.9228948875008699e-02 4.8198914838866864e+00 4.6921976345548293e+00 7.8247725613599197e+00 0 0 0
156 1 1 -5.8384390577817566e-02 1.9615726302048230e+01 4.8903053323486656e+00 7.9346299155425859e+00 0 0 0
157 1 1 -4.0980885756279783e-02 3.0225355832366532e+00 4.9810064911102012e+00 1.7957238323798244e+01 0 0 0
158 1 1 -3.8246476554800984e-02 1.7905499078174490e+01 5.0278071615260842e+00 1.7811747024723722e+01 0 0 0
159 1 1 -3.9545210042370021e-02 1.2080004559443413e+01 7.5797875210621797e+00 7.8279567738286939e+00 0 0 0
160 1 1 -4.4026540041917001e-02 2.6909212536627479e+01 7.5239558237109678e+00 7.9102650907594931e+00 0 0 0
161 1 1 1.0892685337522331e-01 9.6125258937097602e+00 1.3382906739523177e+00 1.8661723412758342e+01 0 0 0
162 1 1 9.2127972470528702e-02 2.4546838823132173e+01 1.2423495025527731e+00 1.8509848416694027e+01 0 0 0
163 1 1 1.0011879672409996e-01 5.8422282911715859e+00 1.1361278717382350e+01 8.8291380990639095e+00 0 0 0
164 1 1 8.9246081617086526e-02 2.0477068017649277e+01 1.1360591848467415e+01 8.6760979323344749e+00 0 0 0
165 1 1 1.0413677284038818e-01 2.3287431584251461e+00 1.1425258878168824e+01 1.8502248763239081e+01 0 0 0
166 1 1 9.8837714549916744e-02 1.7233371064836653e+01 1.1733085599685447e+01 1.8689373392429552e+01 0 0 0
167 1 1 9.0330368592952695e-02 1.2745676782803695e+01 9.8265383380006166e-01 8.5713791757447346e+00 0 0 0
168 1 1 9.7954476256140594e-02 2.7530865842602726e+01 8.5779358290447560e-01 8.4995562114031227e+00 0 0 0
169 1 1 1.0003115254349067e-01 9.9911610201427639e+00 6.7901705345289329e+00 1.8554612929365241e+01 0 0 0
170 1 1 1.0574086206568328e-01 2.4774069324195821e+01 6.5769757637074902e+00 1.8429253278464621e+01 0 0 0
171 1 1 9.4558468594867107e-02 5.3685791436832977e+00 5.7995887147447815e+00 8.5464576231934792e+00 0 0 0
172 1 1 9.4818404830094155e-02 2.0299642824653553e+01 5.8749440228814507e+00 8.6848607967028855e+00 0 0 0
173 1 1 9.7765697478752439e-02 2.3336540270612502e+00 5.9048782189647451e+00 1.8738355648286017e+01 0 0 0
174 1 1 8.9408437655005751e-02 1.7346651587776808e+01 6.0070006901236201e+00 1.8659679011364602e+01 0 0 0
175 1 1 1.0522138867096405e-01 1.2696747825100390e+01 6.6437730380488444e+00 8.7415017142777049e+00 0 0 0
176 1 1 9.4276561968719252e-02 2.7530867322898494e+01 6.5248826861550961e+00 8.7293552965563155e+00 0 0 0
177 1 1 -6.1256421957026144e-02 8.2515834686867144e+00 1.0239115622771746e+00 1.8348140161387448e+01 0 0 0
178 1 1 -6.1734480766412664e-02 2.3121500251531863e+01 1.0608098671102688e+00 1.8441636935003238e+01 0 0 0
179 1 1 -7.4689412353619561e-02 7.2755345403283531e+00 1.1480921842671322e+01 8.6531187987324909e+00 0 0 0
180 1 1 -6.0637249050635326e-02 2.1808133235988059e+01 1.1733929023230047e+01 8.2850739305300536e+00 0 0 0
181 1 1 -4.7310019431879902e-02 9.3972591937105077e-01 1.1574497164239714e+01 1.8173193147394279e+01 0 0 0
182 1 1 -5.3693455423072411e-02 1.5830496508801556e+01 1.1861121584045128e+01 1.8562349470101537e+01 0 0 0
183 1 1 -6.0694152629443693e-02 1.4148886436684014e+01 7.1058646781858115e-01 8.4252202225444695e+00 0 0 0
184 1 1 -5.1520432749259160e-02 2.9083752877369459e+01 1.1706274652089036e+01 8.1761665935392251e+00 0 -1 0
185 1 1 -5.1926866806741773e-02 8.6114785392840449e+00 6.6147107193706693e+00 1.8384747258690624e+01 0 0 0
186 1 1 -5.4617990229212370e-02 2.3385903231241386e+01 6.3982624144290439e+00 1.8147293228632527e+01 0 0 0
187 1 1 -4.9471508948643383e-02 6.7530642270024952e+00 6.1073885708703370e+00 8.3960955789405816e+00 0 0 0
188 1 1 -7.1946256040534201e-02 2.1673981948151379e+01 6.0651138524034769e+00 8.3201393982553231e+00 0 0 0
189 1 1 -5.5604559564058936e-02 9.2991934335787141e-01 5.9719688054939128e+00 1.8552708742385910e+01 0 0 0
190 1 1 -6.3445101974038742e-02 1.5958165212676342e+01 6.3170468126231683e+00 1.8640198200707104e+01 0 0 0
191 1 1 -5.4822632431471216e-02 1.4133376513832879e+01 6.5318451284599854e+00 8.6939699194660598e+00 0 0 0
192 1 1 -3.5783382286047730e-02 2.8895328229900436e+01 6.1110771286166194e+00 8.5186644995260536e+00 0 0 0
193 1 1 7.0170239664081160e-02 7.4504135118403845e+00 1.9050182070151913e+00 1.7555368818304579e+01 0 0 0
194 1 1 8.3189473061925173e-02 2.2281210955274577e+01 1.8425514888022252e+00 1.7586783928291339e+01 0 0 0
195 1 1 7.6419178905474616e-02 7.9998085670324732e+00 1.0615900099536288e+01 7.7806660463672426e+00 0 0 0
196 1 1 8.5454278095399100e-02 2.2620478303966888e+01 1.0867319697401660e+01 7.5499484826302341e+00 0 0 0
197 1 1 7.5286572476050861e-02 1.5020862648961652e+01 1.1056354669077594e+01 1.7646703316919655e+01 0 0 0
198 1 1 8.6970889600340162e-02 2.9586260386006089e+01 1.0595131846494763e+01 1.7476127245926911e+01 0 0 0
199 1 1 8.4476470824994668e-02 3.4614338062639560e-01 1.5471422773644810e+00 7.4349153741019292e+00 0 0 0
200 1 1 8.6261553947689515e-02 1.5054800291340761e+01 1.4698867122978339e+00 7.5692003021748979e+00 0 0 0
201 1 1 7.0445593780270890e-02 7.8342063900080916e+00 7.4749698527926700e+00 1.7528864878627374e+01 0 0 0
202 1 1 8.0517670185688145e-02 2.2525333695297970e+01 7.2882127230472582e+00 1.7431884206829601e+01 0 0 0
203 1 1 8.6718886291353436e-02 7.6270427782533110e+00 5.3351069480257589e+00 7.5618961164275884e+00 0 0 0
204 1 1 6.5066143040763080e-02 2.2369148331402727e+01 5.1558048328384816e+00 7.4934804967697435e+00 0 0 0
205 1 1 8.0722066849068644e-02 1.5073524091548700e+01 5.7293328086639201e+00 1.7668781806780139e+01 0 0 0
206 1 1 7.5452349145403552e-02 2.9661699542975480e+01 5.1782754464393053e+00 1.7543535275111125e+01 0 0 0
207 1 1 9.2749067639546129e-02 2.9707047548192435e+01 6.8628775197571450e+00 7.6256639065025897e+00 -1 0 0
208 1 1 8.2733349029538356e-02 1.4960797898973503e+01 7.3188256505556080e+00 7.7953496783586855e+00 0 0 0
209 1 1 -2.7947293796118694e-01 7.2871577866644159e+00 3.9154169117843645e+00 1.5986020891807915e+01 0 0 0
210 1 1 -2.7280383818567810e-01 2.2182918470282914e+01 3.8070425125219503e+00 1.5912238030213981e+01 0 0 0
211 1 1 -2.6072678231657931e-01 7.8535030425189678e+00 8.8213266122531664e+00 5.8538031896459426e+00 0 0 0
212 1 1 -2.7876755839384559e-01 2.2788737549023839e+01 8.6873668605025323e+00 6.2199026209123884e+00 0 0 0
213 1 1 -2.7120216912028156e-01 1.4858316643969127e+01 9.1771987154187222e+00 1.5933945833280612e+01 0 0 0
214 1 1 -2.7595473732998987e-01 2.9560760830809148e+01 8.6874062570453070e+00 1.5839306242302058e+01 0 0 0
215 1 1 -2.6028439744814985e-01 3.3650333826743350e-01 3.4503274737435965e+00 5.6770135238532662e+00 0 0 0
216 1 1 -2.5784953425191032e-01 1.5261057462908505e+01 3.6484505220735284e+00 6.2806144095397318e+00 0 0 0
217 1 1 -2.7208844439712893e-01 7.7799191399078156e+00 9.3190447673619765e+00 1.5831865689580576e+01 0 0 0
218 1 1 -2.5945830254839730e-01 2.2486825667241440e+01 9.2300160517608418e+00 1.5765391540823085e+01 0 0 0
219 1 1 -2.6954183321178166e-01 7.8768450119646491e+00 3.1515239938798558e+00 6.1940417610608627e+00 0 0 0
220 1 1 -2.6723546284239919e-01 2.2488279685815044e+01 3.2912498983430249e+00 5.8822724927056376e+00 0 0 0
221 1 1 -2.8181487374768249e-01 1.4758436032399327e+01 3.7587507643363196e+00 1.6005195669110428e+01 0 0 0
222 1 1 -2.6376967039482963e-01 2.9672458427640866e+01 3.3199540248986517e+00 1.5784384430462296e+01 0 0 0
223 1 1 -2.7276556685741887e-01 6.3230305296755618e-01 8.8094331306230362e+00 5.9936661375254827e+00 0 0 0
224 1 1 -2.7058547875875860e-01 1.5231823910715844e+01 9.0548881724800037e+00 5.9960814939538389e+00 0 0 0
225 1 2 2.8269714388667821e-01 6.7183431527125368e+00 1.1232122967235426e+01 3.9640350375889222e+00 0 0 0
226 1 2 2.5685439259220916e-01 2.1279403143894658e+01 1.0952831297583353e+01 4.0830821022335479e+00 0 0 0
227 1 2 2.7562219769963808e-01 8.6339350472437566e+00 1.2495418205325879e+00 1.4160294285820161e+01 0 0 0
228 1 2 2.7999428805127097e-01 2.3306031419342393e+01 1.3025786899151486e+00 1.3948504896766767e+01 0 0 0
229 1 2 2.7243537338488727e-01 1.3930278608235652e+01 1.2506584197663657e+00 4.0293750899727137e+00 0 0 0
230 1 2 2.6841462135340677e-01 2.8308764458386026e+01 1.0663666714288327e+00 3.9715060873749621e+00 0 0 0
231 1 2 2.9457568801694650e-01 1.4883718316760204e+00 1.1101827669018276e+01 1.3875274804417579e+01 0 0 0
232 1 2 2.5510387498753984e-01 1.6235778365636580e+01 1.1296967046488309e+01 1.4019341916855211e+01 0 0 0
233 1 2 2.7146105217489447e-01 6.6329162882766131e+00 5.4047366464508899e+00 3.8076408495123788e+00 0 0 0
234 1 2 2.9236361584323312e-01 2.1290405570613931e+01 5.7191909912339787e+00 3.9233210607465296e+00 0 0 0
235 1 2 2.7588608629914618e-01 8.6656315813772515e+00 7.0461331534641580e+00 1.3791548276397085e+01 0 0 0
236 1 2 2.5834435704028386e-01 2.3757126695123077e+01 6.9918380045767874e+00 1.3771120356600466e+01 0 0 0
237 1 2 2.7428686347367592e-01 1.4226496162361750e+01 6.5809308089581737e+00 3.7149384247390893e+00 0 0 0
238 1 2 2.6316445867877125e-01 2.8546527511900258e+01 6.6831784697736074e+00 3.8702984512527960e+00 0 0 0
239 1 2 2.7024280326318956e-01 1.3675082014953819e+00 5.6402585416380697e+00 1.4038547448039811e+01 0 0 0
240 1 2 2.5511924587226009e-01 1.6018001188231342e+01 6.0326171355968778e+00 1.3875977053184302e+01 0 0 0
241 1 2 2.7723152561781284e-01 7.0728760533758885e+00 3.6347457502728195e+00 2.9997862282072019e-01 0 0 0
242 1 2 2.5448989923406068e-01 2.1615456494016442e+01 3.2138002671021280e+00 1.7990260065651234e-01 0 0 0
243 1 2 2.5474804929118355e-01 8.1390457060587149e+00 8.9010354977301027e+00 1.0300904913835369e+01 0 0 0
244 1 2 2.5326801556462231e-01 2.3617937610300846e+01 8.9671005856655146e+00 1.0184693010915105e+01 0 0 0
245 1 2 2.6875739840402668e-01 1.4450700882182881e+01 8.6748123085568309e+00 4.9697185420675438e-01 0 0 0
246 1 2 2.5954674988734378e-01 2.8812425700594499e+01 8.7756197756299645e+00 2.4990259108685312e-01 0 0 0
247 1 2 2.6204301185851098e-01 1.1082340075666135e+00 3.7699761323079244e+00 1.0287688281986759e+01 0 0 0
248 1 2 2.6490877393933343e-01 1.5958427010664883e+01 3.5930006875819736e+00 1.0103852943023439e+01 0 0 0
249 1 2 2.5838895940035378e-01 6.9755061858590706e+00 9.3651552973355123e+00 7.3470293774993023e-01 0 0 0
250 1 2 2.7132692957828891e-01 2.1521553377635840e+01 9.0631998412250585e+00 1.7925223533076542e-01 0 0 0
251 1 2 2.5143212325642755e-01 8.5132787446060245e+00 3.1612137998283742e+00 1.0551638358204196e+01 0 0 0
252 1 2 2.8551831071993611e-01 2.3104626054449508e+01 3.2311163785070498e+00 1.0468155641457630e+01 0 0 0
253 1 2 2.3073131788945009e-01 1.3784561720356090e+01 2.9101071796644877e+00 3.0301031782199767e-01 0 0 0
254 1 2 2.5629831308984985e-01 2.8984178832806926e+01 2.7112992723175884e+00 6.6595567958665391e-01 0 0 0
255 1 2 2.6203107375504980e-01 1.2245526306648895e+00 9.3056151481002818e+00 1.0452134021006305e+01 0 0 0
256 1 2 2.2980201175929335e-01 1.6055783336008592e+01 9.6288917957731748e+00 1.0228817475266544e+01 0 0 0
257 1 2 2.6111385320459007e-01 2.5087903678973382e+00 3.0581258933281399e+00 2.6378443723782801e+00 0 0 0
258 1 2 2.6907192004247904e-01 1.7152874714729712e+01 2.7935322909993983e+00 2.6894049073623245e+00 0 0 0
259 1 2 2.8402784328994840e-01 1.2763102450661185e+01 9.7960429579068347e+00 1.2166930072372478e+01 0 0 0
260 1 2 2.8093856976807063e-01 2.7894205280466533e+01 9.8668984434829898e+00 1.2698235596357687e+01 0 0 0
261 1 2 2.8395006488067109e-01 9.8976194343589672e+00 9.6608785675985089e+00 2.4990112364401931e+00 0 0 0
262 1 2 2.6689365872280391e-01 2.4303004967165570e+01 9.4972518733979889e+00 2.4999853389122122e+00 0 0 0
263 1 2 2.8241113771482951e-01 5.5625472892720840e+00 2.5111519719626001e+00 1.2574462574198431e+01 0 0 0
264 1 2 2.3275168738812413e-01 2.0319449231154671e+01 2.8369025890070527e+00 1.2680988484803684e+01 0 0 0
265 1 2 2.6217270152587696e-01 2.4084846460906992e+00 8.2561836171641989e+00 2.7051946018887696e+00 0 0 0
266 1 2 2.6717115667065222e-01 1.7039166289621548e+01 8.2584088762064916e+00 2.5962621482921535e+00 0 0 0
267 1 2 2.5965564836537758e-01 1.2941383457432483e+01 4.2170162319446529e+00 1.2747959071532229e+01 0 0 0
268 1 2 2.8296777066830109e-01 2.7748439603995635e+01 4.0374068224859592e+00 1.2211387308201838e+01 0 0 0
269 1 2 2.7514274175546316e-01 9.6165514971840338e+00 4.5488552383878460e+00 2.6182655481655823e+00 0 0 0
270 1 2 2.6044578340490693e-01 2.4369411259740094e+01 4.0265957236907317e+00 2.4184395149239526e+00 0 0 0
271 1 2 3.0962051903639209e-01 5.6653478139672027e+00 8.1993011944527296e+00 1.2679685440607187e+01 0 0 0
272 1 2 2.7482792827059532e-01 2.0411444860094100e+01 8.5452165950777257e+00 1.2557536887730800e+01 0 0 0
273 1 2 2.8351130891630544e-01 1.0300902393164971e+01 4.2904770051182179e+00 1.6235726848833252e+01 0 0 0
274 1 2 2.9235850785515816e-01 2.5170036650732840e+01 4.1296458156433458e+00 1.5907324066951976e+01 0 0 0
275 1 2 2.6528173198344207e-01 5.0034028872597780e+00 8.5151736845055481e+00 6.2967892122307134e+00 0 0 0
276 1 2 2.9593842204386772e-01 1.9743289920598741e+01 8.4490219175999961e+00 6.2531070557472672e+00 0 0 0
277 1 2 2.6846597061086475e-01 3.1447693020028393e+00 8.3822053428227825e+00 1.6229584422152023e+01 0 0 0
278 1 2 2.9817730448698909e-01 1.7870116645399154e+01 8.8928408335609834e+00 1.6233086550761570e+01 0 0 0
279 1 2 2.8069891986944023e-01 1.2340011506010255e+01 4.1105285746999218e+00 6.3195380676338289e+00 0 0 0