LAMMPS data file via write_data, version 15 Apr 2020, timestep = 80000

672 atoms
4 atom types

1.2782737498685464e+00 2.8703726601134750e+01 xlo xhi
-1.1922250964608851e+00 1.3346225378760597e+01 ylo yhi
2.4912158275106755e-01 1.9767878615648939e+01 zlo zhi
2.8051294709616387e-01 1.9222434226606258e-01 1.7300133640597387e-01 xy xz yz

Masses

1 12.0107
2 14.0067
3 15.9994
4 1.00794

Atoms # full

1 1 1 1.1267002292506931e-01 5.5198140665526738e+00 7.7803400534395872e-01 3.3165328004487460e+00 0 0 0
2 1 1 9.4938911564160108e-02 1.9181211952398606e+01 5.7620255549410526e-01 3.2094053929224047e+00 0 0 0
3 1 1 1.1099547798044190e-01 1.1263559195015775e+01 1.1476195370828023e+01 1.2802697750402661e+01 0 0 0
4 1 1 8.8040548470332047e-02 2.4882175397699232e+01 1.1566853268473135e+01 1.2845538315712941e+01 0 0 0
5 1 1 9.7108198262715259e-02 1.2361638232882239e+01 1.1486704970699957e+01 3.3664421342901707e+00 0 0 0
6 1 1 1.0486464791136130e-01 2.6415465983223818e+01 1.1450869391811917e+01 3.3678872976795047e+00 0 0 0
7 1 1 9.1182079130052815e-02 4.1020962974968525e+00 9.9226881506639764e-01 1.3132050382338967e+01 0 0 0
8 1 1 1.1442338546570410e-01 1.7694721383893295e+01 9.1428084986993685e-01 1.3438020313554295e+01 0 0 0
9 1 1 9.2365854626695998e-02 5.6922221896599083e+00 8.2579637231675953e+00 3.2032950368473614e+00 0 0 0
10 1 1 1.1335821683216925e-01 1.9528670565489019e+01 7.8765449458596484e+00 3.3589222239565042e+00 0 0 0
11 1 1 1.2157952403741458e-01 1.1232118391876259e+01 3.8993637752247201e+00 1.2628190789625226e+01 0 0 0
12 1 1 9.7698680814737662e-02 2.4692642495745687e+01 4.2661967904528826e+00 1.3081322389435146e+01 0 0 0
13 1 1 1.0449121053556359e-01 1.2144667325369628e+01 4.3777939486618713e+00 3.6774992172676906e+00 0 0 0
14 1 1 1.0651195104999449e-01 2.6226328694852821e+01 4.1911836004819785e+00 3.0035968576252254e+00 0 0 0
15 1 1 1.1713031862272580e-01 4.4756503826872862e+00 8.1560124017515001e+00 1.2967385643470847e+01 0 0 0
16 1 1 8.8569749449693952e-02 1.7749737667450539e+01 7.7529539109442682e+00 1.3054153050434262e+01 0 0 0
17 1 1 1.7192922731682860e-02 6.6909345384996657e+00 -3.8605959596939909e-02 3.0144595603908497e+00 0 0 0
18 1 1 5.7722726052457755e-03 2.0362775716473330e+01 -2.1004543028661060e-01 3.1436905639914805e+00 0 0 0
19 1 1 1.9421379849382497e-02 1.0042576791944223e+01 1.2099370201925769e+01 1.2384113984390165e+01 0 0 0
20 1 1 1.1040999842156202e-02 2.3617582663511168e+01 1.2215368095060647e+01 1.2834030213900624e+01 0 0 0
21 1 1 1.7431269903879575e-02 1.3354720513515064e+01 1.2476642286655316e+01 3.2803565233774803e+00 0 0 0
22 1 1 1.2767051865385577e-02 2.7618490337104109e+01 1.2191782942574914e+01 2.9731246840648549e+00 0 0 0
23 1 1 1.0335479957655762e-02 2.8713797238695697e+00 2.8433691782321580e-01 1.2990760596746920e+01 0 0 0
24 1 1 1.8303675579798215e-03 1.6595123959120421e+01 1.1858784595190031e-01 1.3059191063187628e+01 0 0 0
25 1 1 1.4215826222955710e-02 6.8645501119885237e+00 7.5032237435391300e+00 2.8614173069335203e+00 0 0 0
26 1 1 2.2528942330521152e-02 2.0779401369768706e+01 7.2824015043259989e+00 2.9385500862554044e+00 0 0 0
27 1 1 3.2738452869853697e-02 1.0024263327524913e+01 4.6853213866274537e+00 1.2745921980807902e+01 0 0 0
28 1 1 2.0501158919402993e-02 2.3385518688459925e+01 4.8701210046627548e+00 1.2958153973922075e+01 0 0 0
29 1 1 2.3770654426456653e-02 1.3442869652345488e+01 4.9514723928156998e+00 3.4316104184539484e+00 0 0 0
30 1 1 1.3154464852647242e-02 2.7544323016847034e+01 4.7974906134986774e+00 2.9174537730288810e+00 0 0 0
31 1 1 4.6856222664857713e-03 3.2582000192314169e+00 7.4522906103472399e+00 1.2760199066560620e+01 0 0 0
32 1 1 4.8972930273246291e-03 1.6584423063175656e+01 6.9683263386439664e+00 1.2735992408424945e+01 0 0 0
33 1 1 -7.3579996474969593e-03 7.6536564549440858e+00 5.5580395761762325e-01 2.1211667668799454e+00 0 0 0
34 1 1 -2.0204184707699101e-02 2.1449573949839952e+01 3.7328409218511660e-01 2.4187629391042238e+00 0 0 0
35 1 1 -3.5887824632322096e-02 9.1006339113608536e+00 1.1408075664884279e+01 1.1549290636175202e+01 0 0 0
36 1 1 -3.6133645008130572e-02 2.2569019178038914e+01 1.1573210054597208e+01 1.2125647708269979e+01 0 0 0
37 1 1 -2.6172498875210771e-02 1.4477098385543517e+01 1.2094513166495144e+01 2.4851016899034057e+00 0 0 0
38 1 1 -1.3677174041164846e-02 2.8344681753107356e+01 1.1548256429983862e+01 1.9643905628718277e+00 0 0 0
39 1 1 -2.1904999706423216e-02 1.8710138735589961e+00 8.3948387510292566e-01 1.2159684443785709e+01 0 0 0
40 1 1 -1.3957383616277109e-02 1.5867450904487207e+01 6.0767790303415747e-01 1.1998640357124057e+01 0 0 0
41 1 1 -2.4045583234650045e-02 7.6770967493116551e+00 8.0815916860922421e+00 1.8489755190587771e+00 0 0 0
42 1 1 -3.0402475598270182e-02 2.1600466865707403e+01 8.0266714396943044e+00 2.0513729263262377e+00 0 0 0
43 1 1 -4.8974743175309747e-02 8.9904955411356724e+00 4.1397769485462659e+00 1.1907713674770880e+01 0 0 0
44 1 1 -3.0213847613114596e-02 2.2437614409123501e+01 4.2345685320036432e+00 1.2123512849581264e+01 0 0 0
45 1 1 -3.3486540619303923e-02 1.4327643270740259e+01 4.1707392816984710e+00 2.6699022636763354e+00 0 0 0
46 1 1 -2.3661951963679772e-02 2.8529739164278407e+01 4.0659181971043230e+00 2.1813561329424069e+00 0 0 0
47 1 1 -2.0667672876470158e-02 2.3365405065394511e+00 8.1050779266406394e+00 1.1872547743314591e+01 0 0 0
48 1 1 -2.9312664681179594e-03 1.5748653099549681e+01 7.5579092511946646e+00 1.1744087203493960e+01 0 0 0
49 1 1 4.7582860535184027e-02 7.5535499361954033e+00 1.8327183789362209e+00 1.5425253482570536e+00 0 0 0
50 1 1 6.0073519749354834e-02 2.1119701684927520e+01 1.4943788997545124e+00 1.5690433422220822e+00 0 0 0
51 1 1 3.6140990796634485e-02 9.1872397928805221e+00 1.0023122838986598e+01 1.1308044068293034e+01 0 0 0
52 1 1 3.3021616313970881e-02 2.2881612277022523e+01 1.0331383868698126e+01 1.1436377395703472e+01 0 0 0
53 1 1 3.8522608125504704e-02 1.4659991971720455e+01 1.0857168529243211e+01 1.8101048135998623e+00 0 0 0
54 1 1 4.2815432610557418e-02 2.8140009043477601e+01 1.0217677893347009e+01 1.4920993098294582e+00 0 0 0
55 1 1 4.4931385447511386e-02 2.0661966553609892e+00 2.0173303232398609e+00 1.1356620858701477e+01 0 0 0
56 1 1 4.7689463404866989e-02 1.6086855749909201e+01 1.8378019146080460e+00 1.1278448276596544e+01 0 0 0
57 1 1 2.6802043209488487e-02 7.5842347190866048e+00 9.3895429064855556e+00 1.2535337563661391e+00 0 0 0
58 1 1 5.0037870892123790e-02 2.1349888001209532e+01 9.4063477439950063e+00 1.6831028855225436e+00 0 0 0
59 1 1 4.0034632950405664e-02 9.1276834007671273e+00 2.9450474894956908e+00 1.1138189484303467e+01 0 0 0
60 1 1 3.8837644216293835e-02 2.2686876785689901e+01 2.9756929640156189e+00 1.1489479050959307e+01 0 0 0
61 1 1 4.5049164701995000e-02 1.3967922822317099e+01 2.9126661750986482e+00 2.1277079498256022e+00 0 0 0
62 1 1 4.6046834990892800e-02 2.8212310777106133e+01 2.9416373632855226e+00 1.3525172566774293e+00 0 0 0
63 1 1 6.0489890380593853e-02 2.5371669219238662e+00 9.4404902456414597e+00 1.1401151076073342e+01 0 0 0
64 1 1 3.9171783069717095e-02 1.5995396032032172e+01 8.8692178750641837e+00 1.1221824404158147e+01 0 0 0
65 1 1 -3.3599652053199473e-02 6.4448733674108345e+00 2.6181092364940648e+00 2.0547735327035856e+00 0 0 0
66 1 1 -2.7040840589428208e-02 2.0024912259510224e+01 2.3635447382252845e+00 1.9763934467935549e+00 0 0 0
67 1 1 -3.9090119643941934e-02 1.0410475205721992e+01 9.4041914034334901e+00 1.1732450122602231e+01 0 0 0
68 1 1 -3.3448713332249885e-02 2.4137004430861097e+01 9.7013589767950883e+00 1.1559418959585990e+01 0 0 0
69 1 1 -4.3402700201726915e-02 1.3620686244105752e+01 9.9039602706327550e+00 1.9249844855062419e+00 0 0 0
70 1 1 -3.9023817214272470e-02 2.7019755880248219e+01 9.4840957252398681e+00 2.0482767238523643e+00 0 0 0
71 1 1 -2.8696429544687058e-02 3.3744770639233961e+00 2.6368274878239188e+00 1.1509974580678248e+01 0 0 0
72 1 1 -4.0548723898339425e-02 1.7113902544991461e+01 2.6771115174396147e+00 1.1858185276541922e+01 0 0 0
73 1 1 -5.6666737154704577e-02 6.4250292353247485e+00 1.0111745416559202e+01 1.7505883226558072e+00 0 0 0
74 1 1 -3.1156942463657113e-02 2.0123759896764831e+01 9.9039198533826820e+00 2.2075657107442979e+00 0 0 0
75 1 1 -4.2089292857556013e-02 1.0221814172264192e+01 2.0833432492029851e+00 1.1460654369720912e+01 0 0 0
76 1 1 -2.4783453711180264e-02 2.3925484173779996e+01 2.4012108161478700e+00 1.1813850954157051e+01 0 0 0
77 1 1 -2.7046588474344845e-02 1.2667016061241767e+01 2.4081648650160163e+00 2.4147327695279395e+00 0 0 0
78 1 1 -3.5241681627412508e-02 2.6919726664440635e+01 2.3279079840423367e+00 1.6185014786707284e+00 0 0 0
79 1 1 -4.7080062380125284e-02 3.5854469633450883e+00 1.0208243326377854e+01 1.1997255900541527e+01 0 0 0
80 1 1 -2.5397396517962800e-02 1.7091792553894436e+01 9.6635339896369068e+00 1.1716426165504735e+01 0 0 0
81 1 1 3.0210673841661855e-02 5.3553229681501211e+00 2.1068259898864024e+00 2.8172470741404041e+00 0 0 0
82 1 1 2.7731593773314328e-02 1.9041195408271914e+01 1.9521075465481119e+00 2.8970640796302818e+00 0 0 0
83 1 1 1.7287562060829192e-02 1.1457122823896883e+01 1.0066817043574208e+01 1.2417873486270389e+01 0 0 0
84 1 1 1.1723095813291382e-02 2.5168645721795404e+01 1.0223232880143332e+01 1.2365538569804711e+01 0 0 0
85 1 1 1.7348890099631194e-02 1.2413565438910762e+01 1.0239371446548535e+01 2.6408920575215822e+00 0 0 0
86 1 1 2.4078498813612313e-02 2.6095695561963659e+01 1.0143433578367315e+01 2.9011978573528037e+00 0 0 0
87 1 1 1.9370756781482389e-02 4.3705622067685628e+00 2.2364118240808439e+00 1.2428772892275193e+01 0 0 0
88 1 1 2.4058129721190855e-02 1.8039551904105053e+01 2.1681678087239624e+00 1.2842961151651011e+01 0 0 0
89 1 1 1.4018901533492542e-02 5.4576220830910778e+00 9.5576844694772731e+00 2.6372483999231684e+00 0 0 0
90 1 1 2.0179868427631767e-02 1.9154012133021396e+01 9.1827313022740746e+00 3.0298518068819043e+00 0 0 0
91 1 1 1.8929819007664255e-02 1.1364616609425255e+01 2.5196376086951373e+00 1.2167743263212774e+01 0 0 0
92 1 1 1.9194429656199150e-02 2.4954109601617986e+01 2.9426780930775953e+00 1.2652347277336860e+01 0 0 0
93 1 1 1.8290960096741291e-02 1.1682995414925987e+01 3.1394120207476925e+00 3.1472857579860101e+00 0 0 0
94 1 1 3.9126477935517545e-02 2.5979533745713407e+01 2.8674640645225633e+00 2.5304401480069596e+00 0 0 0
95 1 1 1.1328493197342599e-02 4.6159437074955134e+00 9.5739389110259054e+00 1.2755055297410886e+01 0 0 0
96 1 1 2.8245278590794679e-02 1.8018074398305707e+01 9.1026591875557195e+00 1.2655049826812530e+01 0 0 0
97 1 1 -2.6843328470067557e-01 4.2396164008979991e+00 8.5031167135332542e-02 3.9222068779318118e+00 0 1 0
98 1 1 -2.7051192971309174e-01 1.8042637776820705e+01 -2.3530151239534136e-01 3.8645656122762508e+00 0 1 0
99 1 1 -2.4653637426058603e-01 1.2405839115127572e+01 1.2233109115026494e+01 1.3523709089824584e+01 0 -1 0
100 1 1 -2.9387739366353627e-01 2.6077397064003609e+01 1.2188743851220710e+01 1.3576664433861772e+01 0 -1 0
101 1 1 -2.6835930009823555e-01 1.0994473190338319e+01 1.1866929489635993e+01 4.0113563314444214e+00 0 -1 0
102 1 1 -2.7662959816472743e-01 2.5360107764209431e+01 1.2267686745314855e+01 4.1797839697499901e+00 0 -1 0
103 1 1 -2.5923253453441203e-01 5.1703815216976201e+00 1.3248658748250097e-01 1.3853526766729985e+01 0 1 0
104 1 1 -2.7382956382742285e-01 1.8709457709189799e+01 1.6627139796435864e-01 1.4362779996232151e+01 0 1 0
105 1 1 -2.5626994649769269e-01 4.8563075087765064e+00 7.5052044671025184e+00 4.2475296471451163e+00 0 0 0
106 1 1 -2.6331597285367719e-01 1.8400823739393001e+01 7.0631848197935616e+00 4.0812951701206472e+00 0 0 0
107 1 1 -2.6812734326775689e-01 1.2447243966393035e+01 4.6231993085699896e+00 1.3239225180830454e+01 0 0 0
108 1 1 -2.7273375686338536e-01 2.5844711109524592e+01 5.0718703571576631e+00 1.3772292208900826e+01 0 0 0
109 1 1 -2.7314273099406644e-01 1.1203346505958550e+01 5.1524469441490739e+00 4.6662400823290531e+00 0 0 0
110 1 1 -2.5420503290525981e-01 2.5268653065788779e+01 4.9561927064648748e+00 3.9234660396509460e+00 0 0 0
111 1 1 -2.6392369047310682e-01 5.6351566534418929e+00 7.3450765489408605e+00 1.3618120604659806e+01 0 0 0
112 1 1 -2.6926685313170495e-01 1.8804575970746349e+01 7.0795498013195308e+00 1.3969294492721660e+01 0 0 0
113 1 1 1.0430821709952015e-01 9.4147996367273947e+00 9.2494378654543574e-01 1.6529426782629535e+01 0 0 0
114 1 1 1.0346744533011452e-01 2.3313081402820622e+01 9.3484881617992510e-01 1.7137074997823397e+01 0 0 0
115 1 1 9.0915700529389049e-02 6.9085819340719556e+00 1.1693041422628536e+01 7.0137125184391662e+00 0 0 0
116 1 1 1.0448119132927339e-01 2.1126929332518376e+01 1.1404520085375911e+01 6.8461571969045663e+00 0 0 0
117 1 1 1.1701650012348414e-01 3.1610149648449717e+00 1.1624936564958219e+01 1.6808620422173995e+01 0 0 0
118 1 1 1.0505328264954747e-01 1.6563950792814470e+01 1.2157661648278498e+01 1.6960012156545169e+01 0 0 0
119 1 1 9.8844324243552689e-02 1.4077498333421602e+01 7.8472857715546063e-01 6.8643438015052638e+00 0 0 0
120 1 1 9.9045354897673091e-02 2.7760602884244012e+01 1.6965957517768393e-01 7.2506641900637527e+00 0 0 0
121 1 1 9.1646917007772138e-02 9.7324256025854936e+00 8.2251276489455094e+00 1.6666662513559324e+01 0 0 0
122 1 1 1.0699813432465644e-01 2.3103961210696131e+01 8.1362287869127030e+00 1.6707439315825908e+01 0 0 0
123 1 1 1.0534374252379909e-01 6.9626217640094623e+00 4.3309612204938466e+00 7.2846217412192837e+00 0 0 0
124 1 1 1.0376268495946084e-01 2.1117609417907531e+01 4.1565807943822719e+00 7.1275539324975750e+00 0 0 0
125 1 1 1.1248821045250311e-01 2.9840964629153870e+00 4.7096401695118022e+00 1.6645709337475211e+01 0 0 0
126 1 1 1.0375442117074637e-01 1.6337519695454226e+01 4.7692360183463611e+00 1.7044672150831261e+01 0 0 0
127 1 1 1.2273434777102352e-01 1.3787857143330500e+01 8.1360511117180003e+00 7.1009451499463765e+00 0 0 0
128 1 1 9.4264952008739786e-02 2.7828731626124490e+01 7.6561482226224511e+00 6.8479208496134394e+00 0 0 0
129 1 1 1.8834505050961722e-02 1.0643650539139989e+01 1.5309584398464597e+00 1.6949763980911257e+01 0 0 0
130 1 1 1.7513073480515930e-02 2.4635291922091831e+01 1.4912048399176232e+00 1.7212308992945715e+01 0 0 0
131 1 1 3.0153916527763433e-02 5.6817156385958949e+00 1.1275164194295229e+01 7.5482116065679055e+00 0 0 0
132 1 1 2.5545797958776331e-02 1.9828504445704237e+01 1.0906635656840802e+01 7.2056575372013052e+00 0 0 0
133 1 1 2.5342050315570991e-02 4.4198249462576040e+00 1.1074322912689862e+01 1.7286518371393910e+01 0 0 0
134 1 1 1.7715514342731858e-02 1.7873091322423562e+01 1.1653906409530151e+01 1.7376350980963188e+01 0 0 0
135 1 1 3.2015505903602179e-02 1.2807238786145042e+01 1.3049252836057663e+00 7.2077898216209553e+00 0 0 0
136 1 1 3.9589134105254012e-02 2.6493992128365139e+01 8.2743472780972827e-01 7.5587199695623672e+00 0 0 0
137 1 1 3.5744484981547933e-02 1.0985095715569095e+01 8.8410048263213206e+00 1.7059317517151470e+01 0 0 0
138 1 1 2.8419971877343485e-02 2.4494533102659858e+01 8.3894848751480424e+00 1.6951591618841142e+01 0 0 0
139 1 1 2.6243127984213271e-02 5.6544120680420287e+00 3.7203501732129851e+00 7.4168054183677112e+00 0 0 0
140 1 1 1.8397011966761113e-02 1.9791924531958838e+01 3.6469594512318508e+00 7.3163826376305527e+00 0 0 0
141 1 1 2.6845725386376564e-02 4.2241678556836710e+00 4.1173135685479085e+00 1.7105188525829746e+01 0 0 0
142 1 1 2.3282364793001130e-02 1.7561254281298922e+01 4.0396416019582917e+00 1.7183083061418465e+01 0 0 0
143 1 1 1.7134907606509975e-02 1.2442926083478890e+01 8.5125351574642139e+00 7.3776503318338618e+00 0 0 0
144 1 1 1.8623110412285638e-02 2.6610420367164132e+01 8.2453446136352575e+00 7.3301356255609242e+00 0 0 0
145 1 1 -1.6619903253832006e-02 1.1410207545716274e+01 7.7555737691365878e-01 1.7876846753900040e+01 0 0 0
146 1 1 -3.0114002059078125e-02 2.5630146505090309e+01 6.5991822186738336e-01 1.7816460673369875e+01 0 0 0
147 1 1 -2.8900772928269317e-02 5.0038187513848076e+00 1.2124180370110103e+01 8.4701344859040386e+00 0 0 0
148 1 1 -1.3365590667464608e-02 1.8983778344199298e+01 1.1748042081657676e+01 7.9927490398654362e+00 0 0 0
149 1 1 -3.3698097301940157e-02 5.1688682915704600e+00 1.1883362209251079e+01 1.8147947294602737e+01 0 0 0
150 1 1 -3.8937139997096859e-02 1.8749472161689717e+01 1.2558765841980875e+01 1.8045460489644178e+01 0 0 0
151 1 1 -2.3393491087542899e-02 1.1907392524485488e+01 5.0423402896719893e-01 7.9834212291954776e+00 0 0 0
152 1 1 -2.5716908442573960e-02 2.5509985058460948e+01 2.7860066522748861e-02 8.1960290855941924e+00 0 0 0
153 1 1 -1.3362430750918138e-02 1.1814382074617695e+01 7.9883836192339901e+00 1.7869456972805366e+01 0 0 0
154 1 1 -4.2608776035225247e-02 2.5241438812190889e+01 7.4908871485037105e+00 1.7770783939730237e+01 0 0 0
155 1 1 -3.4094430889301731e-02 4.6842256583077209e+00 4.5604886349008424e+00 7.9683991500429467e+00 0 0 0
156 1 1 -2.1690748072818806e-02 1.8961235974634935e+01 4.4169690212115640e+00 8.1687905369098051e+00 0 0 0
157 1 1 -1.4907476719051765e-02 5.0280816938689048e+00 4.9096814195814034e+00 1.7935678095256129e+01 0 0 0
158 1 1 -2.7081901469263099e-02 1.8506995124255802e+01 4.8205506125946069e+00 1.7898635486049493e+01 0 0 0
159 1 1 -2.1070595818797198e-02 1.1632757591397677e+01 7.5826391579119674e+00 8.1110768043016463e+00 0 0 0
160 1 1 -3.4779849524948073e-02 2.5811032329695028e+01 7.4908618634229738e+00 8.2491498366371818e+00 0 0 0
161 1 1 5.8759795616268123e-02 1.1104210107462960e+01 -5.1477615100130203e-01 1.8357983363865827e+01 0 0 0
162 1 1 5.9596886641257396e-02 2.5307974744982559e+01 -6.1067943568614735e-01 1.8396429702420733e+01 0 0 0
163 1 1 2.7341700863875176e-02 5.6634752532354824e+00 1.3283973350297615e+01 8.9359202978749277e+00 0 0 0
164 1 1 5.1871272289668001e-02 1.9470173220675488e+01 1.2979574961502152e+01 8.4875707440897514e+00 0 0 0
165 1 1 4.2596508244598819e-02 4.7391797277472225e+00 1.3186255555293933e+01 1.8520874655437154e+01 0 0 0
166 1 1 2.9368515791885361e-02 1.8145535254494686e+01 -6.4591088748242387e-01 1.8337172763264590e+01 0 1 0
167 1 1 4.4937860996360823e-02 1.2266921560965544e+01 -8.3977132062349369e-01 8.3465844892814545e+00 0 0 0
168 1 1 4.1952441792587128e-02 2.5990972197311581e+01 1.3149539044800655e+01 8.4482525959755250e+00 0 -1 0
169 1 1 3.4636951512401488e-02 1.1512703524752235e+01 6.6467604138592025e+00 1.8233679158961479e+01 0 0 0
170 1 1 4.7988022493032551e-02 2.4706471788199337e+01 6.2775188959549126e+00 1.8279175424576643e+01 0 0 0
171 1 1 4.2834529075052231e-02 4.9989727113077356e+00 5.8400493126407991e+00 8.5551140872877962e+00 0 0 0
172 1 1 4.5714435171303185e-02 1.9303661665205858e+01 5.6922267462853311e+00 8.7685967027342855e+00 0 0 0
173 1 1 4.7045443432184267e-02 4.6100010534188982e+00 6.1039849609681873e+00 1.8609380975140049e+01 0 0 0
174 1 1 3.6187717359110423e-02 1.8274237477671722e+01 5.9919977446558859e+00 1.8657486655791018e+01 0 0 0
175 1 1 4.9336853368858576e-02 1.2153800703495286e+01 6.3858257384407242e+00 8.7056882526948538e+00 0 0 0
176 1 1 4.5275105793173787e-02 2.6041706844026773e+01 6.0835139948041164e+00 8.5402567685723643e+00 0 0 0
177 1 1 -3.4206214240600163e-02 1.0241059016837035e+01 1.3396165692810051e+01 1.7764180398299914e+01 0 -1 0
178 1 1 -3.3755416669115357e-02 2.4359698778247871e+01 1.3338381143067707e+01 1.8005091850092107e+01 0 -1 0
179 1 1 -5.2657770994350005e-02 6.7416136375791185e+00 -1.0015297151258173e+00 8.4873071367097026e+00 0 1 0
180 1 1 -3.8569961993547432e-02 2.0360621580565727e+01 -9.7701695835062141e-01 7.8907850069659977e+00 0 1 0
181 1 1 -3.7959206763888059e-02 3.2731491578383833e+00 -8.0516910274900266e-01 1.7948596396048814e+01 0 1 0
182 1 1 -3.5862562930026390e-02 1.6793268711907952e+01 -2.2470055332548022e-01 1.7979232434122231e+01 0 1 0
183 1 1 -4.0474236720472130e-02 1.3787247015918272e+01 1.3142484463706982e+01 7.8939865512157015e+00 0 -1 0
184 1 1 -3.1626358640035213e-02 2.7227848586027743e+01 1.2597614861665743e+01 8.0053754251216525e+00 0 -1 0
185 1 1 -2.5175691243877800e-02 1.0220050895314431e+01 6.1932145385045443e+00 1.7831432505976373e+01 0 0 0
186 1 1 -4.4196976029630464e-02 2.3379283118562036e+01 5.9410833004051566e+00 1.7887170190872098e+01 0 0 0
187 1 1 -3.0850031375096502e-02 6.2875852958000467e+00 6.3544066334615055e+00 8.2504261849257716e+00 0 0 0
188 1 1 -4.6135899547707922e-02 2.0498550992649296e+01 6.2781436879592496e+00 8.2310384607290601e+00 0 0 0
189 1 1 -2.9312182702215060e-02 3.5772301035147889e+00 6.7176921002658636e+00 1.7851161538146826e+01 0 0 0
190 1 1 -3.0920534630382669e-02 1.7062502549240328e+01 6.6953968671672692e+00 1.8321949969758485e+01 0 0 0
191 1 1 -4.5500676350413424e-02 1.3397898636546522e+01 5.9655038609528788e+00 8.0715965578287374e+00 0 0 0
192 1 1 -4.0393647982737896e-02 2.7195667194616338e+01 5.4753754291462151e+00 7.8947280057286111e+00 0 0 0
193 1 1 2.4001133373164271e-03 9.1007838308939437e+00 -4.2583443551579014e-01 1.6881908289164755e+01 0 0 0
194 1 1 1.0520728567274422e-02 2.3016973906570115e+01 -4.5459084474236156e-01 1.7392637543270354e+01 0 0 0
195 1 1 2.5127747572205893e-02 7.6220127450395090e+00 1.2852136086668402e+01 7.4281576823244855e+00 0 0 0
196 1 1 2.2075895250749260e-02 2.1505778421881725e+01 1.2782114247087993e+01 7.1111545546726607e+00 0 0 0
197 1 1 1.0331986569164509e-02 1.6139726375299162e+01 1.3481415857612895e+01 1.7286998034235978e+01 0 0 0
198 1 1 2.5209718969192448e-02 2.6788901451198077e+00 1.2911003978117282e+01 1.7180022708793217e+01 1 0 0
199 1 1 1.4446327233664111e-02 2.8248257162402734e+01 1.3303141968815162e+01 7.2739016831791679e+00 -1 -1 0
200 1 1 1.3437916918153232e-02 1.4389214065308222e+01 -6.2257898622554397e-01 7.0915631506429477e+00 0 0 0
201 1 1 2.4568868648298686e-02 9.3590930409905013e+00 6.8556867532650374e+00 1.6911864353910161e+01 0 0 0
202 1 1 2.2863911482990561e-02 2.2601609055780976e+01 6.8146525429755664e+00 1.7017250474875460e+01 0 0 0
203 1 1 1.9547287936973350e-02 7.3119805395991557e+00 5.6807986950754632e+00 7.5108252888660463e+00 0 0 0
204 1 1 3.5164116037358153e-03 2.1450634438942124e+01 5.5204410405438189e+00 7.4508009104086357e+00 0 0 0
205 1 1 1.6720194871810604e-02 1.6072576764311428e+01 6.1471652613551555e+00 1.7450205045291632e+01 0 0 0
206 1 1 2.1862301034809420e-02 2.7122017234297422e+00 6.1033319946331934e+00 1.6819466177393068e+01 1 0 0
207 1 1 1.0113262519687912e-02 2.8031851486931320e+01 6.2440772947092702e+00 7.0417497954357113e+00 -1 0 0
208 1 1 2.4410610720689827e-02 1.4293275133171541e+01 6.8347160240258935e+00 7.3684367701384197e+00 0 0 0
209 1 1 -2.7706340423957981e-01 8.4243523409875678e+00 1.6400457963640238e+00 1.5585036734796212e+01 0 0 0
210 1 1 -2.8008043282662209e-01 2.2243754761277856e+01 1.8022390873726977e+00 1.6395588554886871e+01 0 0 0
211 1 1 -2.5978135398824193e-01 7.6087357983013275e+00 1.0836439987070321e+01 5.9051178511791367e+00 0 0 0
212 1 1 -2.8995771329005809e-01 2.2180053573376643e+01 1.0335749484454247e+01 6.3948272923677658e+00 0 0 0
213 1 1 -2.7470293672613916e-01 1.5649650707984314e+01 1.1087483158740653e+01 1.6334496635719297e+01 0 0 0
214 1 1 -2.6671172684298616e-01 2.2508993386582250e+00 1.0866821444219692e+01 1.5796254512302822e+01 1 0 0
215 1 1 -2.8376768049076806e-01 1.5337111392121354e+00 1.0628913638663429e+00 6.8015720855832846e+00 0 0 0
216 1 1 -2.7835351267827774e-01 1.5205232876899476e+01 1.7787007203446938e+00 6.4530395883904941e+00 0 0 0
217 1 1 -2.7749508007338897e-01 8.7737602017033005e+00 9.0637090070869384e+00 1.5784680419679386e+01 0 0 0
218 1 1 -2.6845509437060699e-01 2.2135845547777567e+01 9.1867500394987687e+00 1.6018737313850274e+01 0 0 0
219 1 1 -2.7881491541508352e-01 8.0815486432356938e+00 3.4297103611718072e+00 6.6818980539883137e+00 0 0 0
220 1 1 -2.7671253359099351e-01 2.2220533958578347e+01 3.2763937230694262e+00 6.4340232469847534e+00 0 0 0
221 1 1 -2.6032273365792524e-01 1.5209831151690807e+01 3.9538250164160402e+00 1.6351826806855350e+01 0 0 0
222 1 1 -2.6388391042887133e-01 2.0789510719291626e+00 3.7714986484679791e+00 1.5831080341994562e+01 1 0 0
223 1 1 -2.6665719843372987e-01 2.8822614631509726e+01 8.4801483652002396e+00 5.9866813627626669e+00 -1 0 0
224 1 1 -2.8184760677779669e-01 1.4820020021259726e+01 9.0553615042179487e+00 6.4036979032502925e+00 0 0 0
225 1 2 4.0464628352852561e-01 7.1833279067534805e+00 1.3123835081704566e+01 3.5515585206451497e+00 0 0 0
226 1 2 3.6832814782016671e-01 2.0914204316387060e+01 1.3033573697724020e+01 3.9019082818573989e+00 0 0 0
227 1 2 3.8161697403361156e-01 9.3272630391147420e+00 -1.0664105970679583e+00 1.2921437646691073e+01 0 0 0
228 1 2 3.6928324694347975e-01 2.3037005250639194e+01 -9.3241024584801413e-01 1.3359568362993597e+01 0 0 0
229 1 2 3.6119357119279993e-01 1.3140763713693124e+01 -7.6475346438271119e-01 4.1010681966178852e+00 0 0 0
230 1 2 3.8532433856447385e-01 2.7687178526588543e+01 -9.4618972516744249e-01 3.4422671979150397e+00 0 0 0
231 1 2 3.9239784027791608e-01 2.4365846661332107e+00 -1.0603874532564794e+00 1.3608591202627627e+01 0 1 0
232 1 2 4.1362739197805320e-01 1.6527943147284425e+01 1.3210532264375001e+01 1.3556643710551072e+01 0 0 0
233 1 2 3.6844372232017070e-01 7.2762617486927610e+00 6.1637666338662820e+00 3.5309672128226701e+00 0 0 0
234 1 2 3.6306159050811776e-01 2.1135149001844919e+01 5.8858187755010452e+00 3.3597995453650085e+00 0 0 0
235 1 2 3.7277960270830396e-01 9.8348140120310212e+00 5.9872220520264054e+00 1.3545755681480768e+01 0 0 0
236 1 2 4.3110814730679109e-01 2.2941842333074018e+01 6.1888994412100624e+00 1.3758546319068840e+01 0 0 0
237 1 2 3.8372633611722839e-01 1.3910978324663503e+01 6.3598201499808011e+00 3.7510299287186113e+00 0 0 0
238 1 2 3.7377870548947228e-01 2.7927346389691088e+01 6.1571475145331309e+00 3.5019550419054757e+00 0 0 0
239 1 2 3.7692615456630763e-01 2.9295332166233656e+00 6.1359167926236440e+00 1.3416866993961394e+01 0 0 0
240 1 2 4.1519741299078156e-01 1.6143069048177029e+01 5.7661843135771118e+00 1.3560332669541713e+01 0 0 0
241 1 2 3.6447546992331936e-01 8.3793009413884025e+00 2.3598126418407510e+00 4.3230736191018748e-01 0 0 0
242 1 2 3.7431727843346801e-01 2.2090937744438335e+01 1.9922099371664861e+00 4.7473163251361666e-01 0 0 0
243 1 2 3.4205816834039587e-01 8.0358539013820440e+00 9.3652455556529937e+00 1.0503540123718956e+01 0 0 0
244 1 2 3.5098197833842382e-01 2.1950315331443548e+01 9.8633636843053090e+00 1.0300677160783906e+01 0 0 0
245 1 2 3.6247910335978561e-01 1.5754912019597249e+01 1.0712678686729785e+01 7.6392160800196030e-01 0 0 0
246 1 2 3.6877095343482325e-01 2.8899105968764367e+01 9.5379118564182264e+00 3.8347880689191816e-01 0 0 0
247 1 2 3.6861764652201245e-01 2.8606809769653896e+01 2.3350200117131354e+00 1.0180742981061570e+01 -1 0 0
248 1 2 3.4135403356627225e-01 1.5239904849547917e+01 2.2700409767015888e+00 1.0124265323344879e+01 0 0 0
249 1 2 3.5448635263569944e-01 8.5597814938953309e+00 9.9736309832097625e+00 2.6638378435967724e-01 0 0 0
250 1 2 3.5022508196506025e-01 2.2191054496505409e+01 1.0214991407622303e+01 7.2165328111024829e-01 0 0 0
251 1 2 3.7286746415152527e-01 8.1001483084197456e+00 2.6595308883642503e+00 1.0046397716852434e+01 0 0 0
252 1 2 3.5914820667087155e-01 2.1826113757313472e+01 2.4159170315385232e+00 1.0334071576686851e+01 0 0 0
253 1 2 3.6341844275728019e-01 1.4933348028975988e+01 2.3027557544992416e+00 1.0505070245830765e+00 0 0 0
254 1 2 3.6497936395623809e-01 1.8273509274233097e+00 2.7585447561057834e+00 1.9707306257080653e+01 1 0 -1
255 1 2 3.6016104342688776e-01 1.7394077092841904e+00 1.0127978663915361e+01 1.0295810685393228e+01 0 0 0
256 1 2 3.7111101848898886e-01 1.5033196868365785e+01 9.3670170565079403e+00 1.0152031348711049e+01 0 0 0
257 1 2 3.9634997329845983e-01 4.0563629243132162e+00 2.8762728555638803e+00 3.1648323882719818e+00 0 0 0
258 1 2 4.0204149998080663e-01 1.7836568665204613e+01 2.8105464750597289e+00 3.1837581630591463e+00 0 0 0
259 1 2 3.7823155572057138e-01 1.2724032601717036e+01 9.2948739496715547e+00 1.2723859998997728e+01 0 0 0
260 1 2 3.7804482839926817e-01 2.6336894490929133e+01 9.2946061669031792e+00 1.2657025672654102e+01 0 0 0
261 1 2 3.5646011903447977e-01 1.1334810438293779e+01 9.1822554492312243e+00 2.7272199839551154e+00 0 0 0
262 1 2 4.0820887432678754e-01 2.4799975032971595e+01 9.3948705140935225e+00 3.2081325643583471e+00 0 0 0
263 1 2 4.1292523228097183e-01 5.5289498647334945e+00 3.1587993409159578e+00 1.2833785089363563e+01 0 0 0
264 1 2 3.8512484406680331e-01 1.9306736337129564e+01 2.9657840205782007e+00 1.2993169595547988e+01 0 0 0
265 1 2 3.9028742476859501e-01 4.1974258076408617e+00 1.0342527067755537e+01 2.9860100216203285e+00 0 0 0
266 1 2 3.8519412880616882e-01 1.7889243032488768e+01 9.8818570434665673e+00 3.5088774914142831e+00 0 0 0
267 1 2 3.9133332385774328e-01 1.2516090840409891e+01 1.6272226754662582e+00 1.2570081483775425e+01 0 0 0
268 1 2 4.1001921022372040e-01 2.6239556114141834e+01 2.0864994432423338e+00 1.2941606784575749e+01 0 0 0
269 1 2 4.0779758460800125e-01 1.0341619341695409e+01 2.5207497415301052e+00 3.4897424496487188e+00 0 0 0
270 1 2 4.1633796835764730e-01 2.4747657113514020e+01 2.0189606043289925e+00 2.9258782753245280e+00 0 0 0
271 1 2 4.1744987550245766e-01 5.7974039809656936e+00 1.0384925215970807e+01 1.3262582154541800e+01 0 0 0
272 1 2 4.0038183388226500e-01 1.9191201692773923e+01 1.0036085287567285e+01 1.3054943991270408e+01 0 0 0
273 1 2 3.9100779274451647e-01 1.1114699115625141e+01 2.8627747432784867e+00 1.6302133455228336e+01 0 0 0
274 1 2 3.6554886181863422e-01 2.5015021922409531e+01 2.9026923036676822e+00 1.6787826508924695e+01 0 0 0
275 1 2 3.8606190589229994e-01 5.0424986060620149e+00 9.8441084501215279e+00 7.2463081124930318e+00 0 0 0
276 1 2 3.8258113910305525e-01 1.9273248014177717e+01 9.5868531090836875e+00 6.6780928813607865e+00 0 0 0
277 1 2 3.8721740083699469e-01 4.9648351437309666e+00 9.7549163663929335e+00 1.6773906718678482e+01 0 0 0
278 1 2 3.7910699908320267e-01 1.8450686573407566e+01 1.0286019732177827e+01 1.7086577733674623e+01 0 0 0
279 1 2 3.5484967299944897e-01 1.2379852498713269e+01 2.6839256741274515e+00 6.7153567895596771e+00 0 0 0