ITEM: TIMESTEP
0
ITEM: NUMBER OF ATOMS
576
ITEM: BOX BOUNDS xy xz yz pp pp pp
-3.8734541101000000e+00 1.7704000473000001e+01 0.0000000000000000e+00
0.0000000000000000e+00 2.5111999511699999e+01 -3.8734541101000000e+00
0.0000000000000000e+00 1.2813326682700000e+01 0.0000000000000000e+00
ITEM: ATOMS id type xs ys zs
1 1 0.221345 0.317111 0.868316
2 1 0.778657 0.682888 0.131685
3 1 0.0286559 0.567111 0.631686
4 1 0.471343 0.932888 0.368314
5 1 0.221344 0.817111 0.868315
6 1 0.778657 0.182888 0.131685
7 1 0.0286559 0.0671112 0.631686
8 1 0.471343 0.432888 0.368314
9 1 0.721343 0.317111 0.868315
10 1 0.278657 0.682888 0.131685
11 1 0.528657 0.567112 0.631685
12 1 0.971343 0.932888 0.368315
13 1 0.721343 0.817112 0.868314
14 1 0.278657 0.182888 0.131685
15 1 0.528657 0.0671117 0.631686
16 1 0.971343 0.432888 0.368315
17 1 0.155522 0.317822 0.682951
18 1 0.844459 0.682174 0.317034
19 1 0.0944651 0.567825 0.817039
20 1 0.405541 0.932174 0.182966
21 1 0.155531 0.817824 0.682957
22 1 0.844459 0.182174 0.317034
23 1 0.0944643 0.0678249 0.817038
24 1 0.405541 0.432174 0.182965
25 1 0.655536 0.317825 0.682961
26 1 0.344461 0.682174 0.317036
27 1 0.594461 0.567826 0.817036
28 1 0.905541 0.932174 0.182966
29 1 0.655543 0.817827 0.682967
30 1 0.344462 0.182174 0.317037
31 1 0.594457 0.0678265 0.817033
32 1 0.90554 0.432174 0.182965
33 1 0.275452 0.256672 0.692902
34 1 0.724547 0.743327 0.307096
35 1 0.974547 0.506673 0.807097
36 1 0.525453 0.993327 0.192904
37 1 0.275453 0.756672 0.692902
38 1 0.724547 0.243327 0.307096
39 1 0.974547 0.00667269 0.807097
40 1 0.525453 0.493327 0.192904
41 1 0.775453 0.256673 0.692903
42 1 0.224547 0.743327 0.307096
43 1 0.474547 0.506673 0.807096
44 1 0.0254528 0.993327 0.192904
45 1 0.775453 0.756673 0.692904
46 1 0.224547 0.243327 0.307097
47 1 0.474547 0.00667347 0.807096
48 1 0.0254528 0.493327 0.192904
49 1 0.296104 0.279286 0.875668
50 1 0.703895 0.720715 0.124331
51 1 0.953897 0.529286 0.624332
52 1 0.546104 0.970715 0.375669
53 1 0.296104 0.779286 0.875668
54 1 0.703895 0.220715 0.124331
55 1 0.953897 0.0292858 0.624332
56 1 0.546104 0.470715 0.375669
57 1 0.796105 0.279285 0.875669
58 1 0.203895 0.720715 0.124331
59 1 0.453895 0.529285 0.624331
60 1 0.0461045 0.970715 0.375669
61 1 0.796104 0.779285 0.875669
62 1 0.203895 0.220715 0.124331
63 1 0.453895 0.0292852 0.624331
64 1 0.0461046 0.470715 0.375669
65 1 0.33329 0.309383 0.722084
66 1 0.666711 0.690618 0.277916
67 1 0.91671 0.559382 0.777916
68 1 0.583289 0.940618 0.222084
69 1 0.33329 0.809382 0.722084
70 1 0.666711 0.190618 0.277916
71 1 0.91671 0.0593822 0.777916
72 1 0.583289 0.440618 0.222084
73 1 0.833289 0.309382 0.722084
74 1 0.166711 0.690618 0.277916
75 1 0.416711 0.559382 0.777916
76 1 0.0832888 0.940618 0.222084
77 1 0.833289 0.809382 0.722084
78 1 0.166711 0.190618 0.277916
79 1 0.416711 0.0593816 0.777916
80 1 0.0832889 0.440618 0.222084
81 1 0.215102 0.368515 0.713587
82 1 0.784897 0.631499 0.286408
83 1 0.0348972 0.618505 0.786409
84 1 0.465103 0.881499 0.213592
85 1 0.215103 0.868509 0.713589
86 1 0.784897 0.131499 0.286408
87 1 0.0348972 0.118505 0.786409
88 1 0.465103 0.381499 0.213592
89 1 0.715103 0.368505 0.713591
90 1 0.284897 0.631498 0.286408
91 1 0.534897 0.618502 0.786408
92 1 0.965103 0.881499 0.213592
93 1 0.715103 0.8685 0.713593
94 1 0.284897 0.131497 0.286408
95 1 0.534897 0.1185 0.786407
96 1 0.965103 0.381499 0.213592
97 2 0.207566 0.321348 0.943383
98 2 0.792434 0.678652 0.0566168
99 2 0.042434 0.571348 0.556617
100 2 0.457566 0.928652 0.443383
101 2 0.207566 0.821348 0.943383
102 2 0.792434 0.178652 0.0566168
103 2 0.042434 0.0713481 0.556617
104 2 0.457566 0.428652 0.443383
105 2 0.707566 0.321348 0.943383
106 2 0.292434 0.678652 0.0566168
107 2 0.542434 0.571348 0.556617
108 2 0.957566 0.928652 0.443383
109 2 0.707566 0.821348 0.943383
110 2 0.292434 0.178652 0.0566168
111 2 0.542434 0.0713482 0.556617
112 2 0.957566 0.428652 0.443383
113 2 0.0974511 0.328238 0.627136
114 2 0.902549 0.671762 0.372863
115 2 0.152549 0.578238 0.872863
116 2 0.347451 0.921762 0.127137
117 2 0.0974511 0.828238 0.627136
118 2 0.902549 0.171762 0.372863
119 2 0.152549 0.0782376 0.872863
120 2 0.347451 0.421762 0.127137
121 2 0.597451 0.328238 0.627136
122 2 0.402549 0.671762 0.372863
123 2 0.652549 0.578238 0.872863
124 2 0.847451 0.921762 0.127137
125 2 0.597451 0.828238 0.627137
126 2 0.402549 0.171762 0.372864
127 2 0.652549 0.0782376 0.872863
128 2 0.847451 0.421762 0.127137
129 2 0.294811 0.227464 0.643576
130 2 0.705189 0.772536 0.356424
131 2 0.955189 0.477464 0.856424
132 2 0.544811 0.0225362 0.143576
133 2 0.294811 0.727464 0.643576
134 2 0.705189 0.272536 0.356424
135 2 0.955189 0.977464 0.856424
136 2 0.544811 0.522536 0.143576
137 2 0.794811 0.227464 0.643576
138 2 0.205189 0.772536 0.356424
139 2 0.455189 0.477464 0.856424
140 2 0.0448107 0.0225362 0.143576
141 2 0.794811 0.727464 0.643576
142 2 0.205189 0.272536 0.356424
143 2 0.455189 0.977464 0.856424
144 2 0.0448107 0.522536 0.143576
145 2 0.319186 0.264421 0.957276
146 2 0.680814 0.735579 0.042724
147 2 0.930814 0.514421 0.542724
148 2 0.569186 0.985579 0.457276
149 2 0.319186 0.764421 0.957276
150 2 0.680814 0.235579 0.0427239
151 2 0.930814 0.0144209 0.542724
152 2 0.569186 0.485579 0.457276
153 2 0.819186 0.264421 0.957276
154 2 0.180814 0.735579 0.042724
155 2 0.430814 0.514421 0.542724
156 2 0.0691862 0.985579 0.457276
157 2 0.819186 0.764421 0.957276
158 2 0.180814 0.235579 0.042724
159 2 0.430814 0.0144209 0.542724
160 2 0.0691862 0.485579 0.457276
161 2 0.384127 0.307478 0.690191
162 2 0.615873 0.692522 0.309809
163 2 0.865873 0.557478 0.809809
164 2 0.634127 0.942522 0.190191
165 2 0.384127 0.807478 0.690191
166 2 0.615873 0.192522 0.309809
167 2 0.865873 0.0574776 0.809809
168 2 0.634127 0.442522 0.190191
169 2 0.884127 0.307478 0.690191
170 2 0.115873 0.692522 0.309809
171 2 0.365873 0.557478 0.809809
172 2 0.134127 0.942522 0.190191
173 2 0.884127 0.807478 0.690191
174 2 0.115873 0.192522 0.309809
175 2 0.365873 0.0574776 0.809809
176 2 0.134127 0.442522 0.190191
177 2 0.187352 0.406285 0.678484
178 2 0.812648 0.593715 0.321516
179 2 0.0626483 0.656285 0.821516
180 2 0.437352 0.843715 0.178484
181 2 0.187352 0.906285 0.678484
182 2 0.812648 0.0937146 0.321516
183 2 0.0626483 0.156285 0.821516
184 2 0.437352 0.343715 0.178484
185 2 0.687352 0.406285 0.678484
186 2 0.312648 0.593715 0.321516
187 2 0.562648 0.656285 0.821516
188 2 0.937352 0.843715 0.178484
189 2 0.687352 0.906285 0.678484
190 2 0.312648 0.0937147 0.321516
191 2 0.562648 0.156285 0.821516
192 2 0.937352 0.343715 0.178484
193 3 0.152391 0.295553 0.785807
194 3 0.847608 0.704444 0.214206
195 3 0.0976077 0.545556 0.714201
196 3 0.402392 0.954443 0.285794
197 3 0.152392 0.795555 0.785801
198 3 0.847608 0.204444 0.214206
199 3 0.0976077 0.0455558 0.714202
200 3 0.402392 0.454444 0.285794
201 3 0.652391 0.295555 0.785797
202 3 0.347608 0.704444 0.214205
203 3 0.597608 0.545556 0.714205
204 3 0.902392 0.954444 0.285794
205 3 0.652392 0.795557 0.785792
206 3 0.347609 0.204444 0.214204
207 3 0.597608 0.0455567 0.714208
208 3 0.902392 0.454444 0.285794
209 3 0.0730885 0.303393 0.80411
210 3 0.926911 0.696607 0.19589
211 3 0.176911 0.553393 0.69589
212 3 0.323089 0.946607 0.30411
213 3 0.0730885 0.803393 0.80411
214 3 0.926911 0.196607 0.19589
215 3 0.176911 0.0533927 0.69589
216 3 0.323089 0.446607 0.30411
217 3 0.573089 0.303393 0.80411
218 3 0.426911 0.696607 0.19589
219 3 0.676911 0.553393 0.69589
220 3 0.823089 0.946607 0.30411
221 3 0.573089 0.803393 0.804109
222 3 0.426911 0.196607 0.19589
223 3 0.676911 0.0533927 0.695891
224 3 0.823089 0.446607 0.30411
225 3 0.195865 0.276948 0.637035
226 3 0.804138 0.723046 0.362957
227 3 0.0541375 0.526952 0.86296
228 3 0.445862 0.973046 0.137043
229 3 0.195863 0.776951 0.637039
230 3 0.804138 0.223046 0.362957
231 3 0.0541377 0.0269523 0.862959
232 3 0.445862 0.473046 0.137043
233 3 0.695863 0.276952 0.637041
234 3 0.304138 0.723047 0.362958
235 3 0.554138 0.526953 0.862958
236 3 0.945862 0.973046 0.137043
237 3 0.695862 0.776954 0.637044
238 3 0.304138 0.223047 0.362958
239 3 0.554138 0.0269542 0.862956
240 3 0.945862 0.473046 0.137043
241 3 0.152248 0.253504 0.533029
242 3 0.847752 0.746496 0.466971
243 3 0.0977523 0.503504 0.966971
244 3 0.402248 0.996496 0.0330292
245 3 0.152248 0.753504 0.533029
246 3 0.847752 0.246496 0.466971
247 3 0.0977523 0.00350378 0.966971
248 3 0.402248 0.496496 0.0330292
249 3 0.652248 0.253504 0.533029
250 3 0.347752 0.746496 0.466971
251 3 0.597752 0.503504 0.966971
252 3 0.902248 0.996496 0.0330292
253 3 0.652248 0.753504 0.533029
254 3 0.347752 0.246496 0.466971
255 3 0.597752 0.00350379 0.966971
256 3 0.902248 0.496496 0.0330292
257 3 0.283815 0.234541 0.798678
258 3 0.716185 0.765458 0.201325
259 3 0.966185 0.484542 0.701323
260 3 0.533815 0.0154584 0.298675
261 3 0.283815 0.734541 0.798677
262 3 0.716185 0.265458 0.201325
263 3 0.966185 0.984542 0.701323
264 3 0.533815 0.515458 0.298675
265 3 0.783815 0.234541 0.798676
266 3 0.216185 0.765459 0.201325
267 3 0.466185 0.484541 0.701325
268 3 0.0338149 0.0154585 0.298675
269 3 0.783815 0.734542 0.798675
270 3 0.216185 0.265459 0.201324
271 3 0.466185 0.984542 0.701325
272 3 0.0338149 0.515459 0.298675
273 3 0.222141 0.195533 0.804897
274 3 0.777859 0.804467 0.195103
275 3 0.0278589 0.445533 0.695103
276 3 0.472141 0.0544668 0.304897
277 3 0.222141 0.695533 0.804897
278 3 0.777859 0.304467 0.195103
279 3 0.0278588 0.945533 0.695103
280 3 0.472141 0.554467 0.304897
281 3 0.722141 0.195533 0.804897
282 3 0.277859 0.804467 0.195103
283 3 0.527859 0.445533 0.695103
284 3 0.972141 0.0544668 0.304897
285 3 0.722141 0.695533 0.804897
286 3 0.277859 0.304467 0.195103
287 3 0.527859 0.945533 0.695103
288 3 0.972141 0.554467 0.304897
289 3 0.359496 0.304308 0.837348
290 3 0.640504 0.695692 0.162654
291 3 0.890504 0.554308 0.662653
292 3 0.609496 0.945692 0.337346
293 3 0.359496 0.804308 0.837348
294 3 0.640504 0.195692 0.162654
295 3 0.890504 0.0543075 0.662653
296 3 0.609496 0.445692 0.337346
297 3 0.859496 0.304308 0.837347
298 3 0.140504 0.695692 0.162653
299 3 0.390504 0.554308 0.662653
300 3 0.109496 0.945692 0.337346
301 3 0.859496 0.804308 0.837346
302 3 0.140504 0.195692 0.162653
303 3 0.390504 0.0543079 0.662654
304 3 0.109496 0.445692 0.337346
305 3 0.396654 0.351731 0.898307
306 3 0.603346 0.648269 0.101693
307 3 0.853346 0.601731 0.601693
308 3 0.646654 0.898269 0.398307
309 3 0.396654 0.851731 0.898307
310 3 0.603346 0.148269 0.101693
311 3 0.853346 0.101731 0.601694
312 3 0.646654 0.398269 0.398307
313 3 0.896654 0.351731 0.898307
314 3 0.103346 0.648269 0.101693
315 3 0.353346 0.601731 0.601693
316 3 0.146654 0.898269 0.398307
317 3 0.896654 0.851731 0.898307
318 3 0.103346 0.148269 0.101693
319 3 0.353346 0.101731 0.601693
320 3 0.146654 0.398269 0.398307
321 3 0.282211 0.354735 0.672557
322 3 0.717801 0.645264 0.327437
323 3 0.967797 0.604736 0.827439
324 3 0.532199 0.895264 0.172563
325 3 0.282206 0.854736 0.672559
326 3 0.717801 0.145264 0.327437
327 3 0.967798 0.104736 0.827439
328 3 0.532199 0.395264 0.172563
329 3 0.782202 0.354736 0.672561
330 3 0.2178 0.645264 0.327437
331 3 0.4678 0.604736 0.827437
332 3 0.0321991 0.895264 0.172563
333 3 0.782198 0.854736 0.672564
334 3 0.217799 0.145264 0.327438
335 3 0.467802 0.104736 0.827436
336 3 0.0321996 0.395264 0.172563
337 3 0.325722 0.40173 0.645314
338 3 0.674278 0.598269 0.354686
339 3 0.924278 0.651731 0.854686
340 3 0.575722 0.848269 0.145314
341 3 0.325722 0.901731 0.645314
342 3 0.674278 0.0982694 0.354686
343 3 0.924278 0.151731 0.854686
344 3 0.575722 0.348269 0.145314
345 3 0.825722 0.401731 0.645314
346 3 0.174278 0.598269 0.354686
347 3 0.424278 0.651731 0.854686
348 3 0.075722 0.848269 0.145314
349 3 0.825722 0.901731 0.645314
350 3 0.174278 0.0982694 0.354686
351 3 0.424278 0.151731 0.854686
352 3 0.075722 0.348269 0.145314
353 3 0.240805 0.369865 0.830468
354 3 0.759199 0.630135 0.169551
355 3 0.00919749 0.619864 0.669544
356 3 0.490801 0.880135 0.330449
357 3 0.240804 0.869865 0.83046
358 3 0.759199 0.130135 0.169551
359 3 0.00919766 0.119864 0.669545
360 3 0.490801 0.380135 0.330449
361 3 0.740802 0.369865 0.830454
362 3 0.259198 0.630135 0.16955
363 3 0.509198 0.619865 0.66955
364 3 0.990801 0.880135 0.330449
365 3 0.740801 0.869865 0.830447
366 3 0.259198 0.130135 0.169548
367 3 0.509199 0.119865 0.669553
368 3 0.990801 0.380135 0.33045
369 3 0.2084 0.417164 0.873961
370 3 0.7916 0.582836 0.12604
371 3 0.0416002 0.667164 0.62604
372 3 0.4584 0.832836 0.37396
373 3 0.2084 0.917164 0.87396
374 3 0.7916 0.0828357 0.12604
375 3 0.0416002 0.167164 0.62604
376 3 0.4584 0.332836 0.37396
377 3 0.7084 0.417164 0.87396
378 3 0.2916 0.582836 0.12604
379 3 0.5416 0.667164 0.62604
380 3 0.9584 0.832836 0.37396
381 3 0.7084 0.917164 0.87396
382 3 0.2916 0.0828357 0.12604
383 3 0.5416 0.167164 0.62604
384 3 0.9584 0.332836 0.37396
385 4 0.0104822 0.308569 0.72542
386 4 0.989517 0.691431 0.27458
387 4 0.239518 0.558569 0.77458
388 4 0.260483 0.941431 0.22542
389 4 0.0104824 0.808569 0.72542
390 4 0.989517 0.191431 0.27458
391 4 0.239518 0.058569 0.77458
392 4 0.260483 0.441431 0.22542
393 4 0.510482 0.308569 0.72542
394 4 0.489517 0.691431 0.27458
395 4 0.739517 0.558569 0.77458
396 4 0.760483 0.941431 0.22542
397 4 0.510483 0.808569 0.72542
398 4 0.489518 0.191431 0.27458
399 4 0.739517 0.058569 0.77458
400 4 0.760483 0.441431 0.22542
401 4 0.0677807 0.298486 0.898113
402 4 0.932219 0.701514 0.101886
403 4 0.182219 0.548486 0.601886
404 4 0.317781 0.951514 0.398114
405 4 0.0677807 0.798486 0.898114
406 4 0.932219 0.201514 0.101886
407 4 0.182219 0.0484859 0.601886
408 4 0.317781 0.451514 0.398114
409 4 0.567781 0.298486 0.898114
410 4 0.432219 0.701514 0.101886
411 4 0.682219 0.548486 0.601886
412 4 0.817781 0.951514 0.398114
413 4 0.567781 0.798486 0.898114
414 4 0.432219 0.201514 0.101886
415 4 0.682219 0.0484859 0.601886
416 4 0.817781 0.451514 0.398114
417 4 0.184314 0.214649 0.497208
418 4 0.815685 0.785352 0.502792
419 4 0.0656854 0.464648 0.00279207
420 4 0.434315 0.0353517 0.997208
421 4 0.184315 0.714648 0.497208
422 4 0.815685 0.285352 0.502792
423 4 0.0656854 0.964648 0.00279209
424 4 0.434315 0.535352 0.997208
425 4 0.684315 0.214648 0.497208
426 4 0.315685 0.785352 0.502792
427 4 0.565685 0.464648 0.0027921
428 4 0.934315 0.0353517 0.997208
429 4 0.684315 0.714648 0.497208
430 4 0.315685 0.285352 0.502792
431 4 0.565685 0.964648 0.00279215
432 4 0.934315 0.535352 0.997208
433 4 0.0885961 0.276117 0.47734
434 4 0.911404 0.723883 0.52266
435 4 0.161404 0.526117 0.0226603
436 4 0.338596 0.973883 0.97734
437 4 0.0885961 0.776117 0.47734
438 4 0.911404 0.223883 0.52266
439 4 0.161404 0.026117 0.0226603
440 4 0.338596 0.473883 0.97734
441 4 0.588596 0.276117 0.47734
442 4 0.411404 0.723883 0.52266
443 4 0.661404 0.526117 0.0226602
444 4 0.838596 0.973883 0.97734
445 4 0.588596 0.776117 0.47734
446 4 0.411404 0.223883 0.52266
447 4 0.661404 0.026117 0.0226602
448 4 0.838596 0.473883 0.97734
449 4 0.19369 0.163914 0.727233
450 4 0.80631 0.836086 0.272767
451 4 0.0563098 0.413914 0.772768
452 4 0.44369 0.0860857 0.227232
453 4 0.19369 0.663914 0.727233
454 4 0.80631 0.336086 0.272767
455 4 0.0563098 0.913914 0.772768
456 4 0.44369 0.586086 0.227232
457 4 0.69369 0.163914 0.727233
458 4 0.30631 0.836086 0.272767
459 4 0.55631 0.413914 0.772767
460 4 0.94369 0.0860857 0.227233
461 4 0.69369 0.663914 0.727232
462 4 0.30631 0.336086 0.272767
463 4 0.55631 0.913914 0.772768
464 4 0.94369 0.586086 0.227233
465 4 0.205183 0.19059 0.891773
466 4 0.794817 0.80941 0.108226
467 4 0.044817 0.44059 0.608226
468 4 0.455183 0.0594099 0.391774
469 4 0.205183 0.69059 0.891774
470 4 0.794817 0.30941 0.108226
471 4 0.044817 0.94059 0.608226
472 4 0.455183 0.55941 0.391774
473 4 0.705183 0.19059 0.891773
474 4 0.294817 0.80941 0.108226
475 4 0.544817 0.44059 0.608226
476 4 0.955183 0.0594099 0.391774
477 4 0.705183 0.69059 0.891774
478 4 0.294817 0.30941 0.108226
479 4 0.544817 0.94059 0.608226
480 4 0.955183 0.55941 0.391774
481 4 0.428767 0.387135 0.854318
482 4 0.571233 0.612865 0.145683
483 4 0.821233 0.637135 0.645683
484 4 0.678767 0.862865 0.354317
485 4 0.428767 0.887135 0.854317
486 4 0.571233 0.112865 0.145683
487 4 0.821233 0.137135 0.645683
488 4 0.678767 0.362865 0.354317
489 4 0.928767 0.387135 0.854318
490 4 0.0712332 0.612865 0.145683
491 4 0.321233 0.637135 0.645683
492 4 0.178767 0.862865 0.354317
493 4 0.928767 0.887135 0.854317
494 4 0.0712332 0.112865 0.145683
495 4 0.321233 0.137135 0.645683
496 4 0.178767 0.362865 0.354317
497 4 0.398483 0.354865 0.99505
498 4 0.601517 0.645135 0.00494964
499 4 0.851517 0.604865 0.504949
500 4 0.648483 0.895135 0.495051
501 4 0.398483 0.854865 0.99505
502 4 0.601517 0.145135 0.00494957
503 4 0.851517 0.104865 0.504949
504 4 0.648483 0.395135 0.49505
505 4 0.898483 0.354865 0.99505
506 4 0.101517 0.645135 0.00494983
507 4 0.351517 0.604865 0.50495
508 4 0.148483 0.895135 0.49505
509 4 0.898483 0.854865 0.99505
510 4 0.101517 0.145135 0.00494988
511 4 0.351517 0.104865 0.50495
512 4 0.148483 0.395135 0.49505
513 4 0.298079 0.449145 0.645421
514 4 0.701922 0.550855 0.354578
515 4 0.951922 0.699145 0.854578
516 4 0.548078 0.800855 0.145422
517 4 0.298079 0.949145 0.645422
518 4 0.701922 0.0508552 0.354578
519 4 0.951922 0.199145 0.854578
520 4 0.548078 0.300855 0.145422
521 4 0.798078 0.449145 0.645422
522 4 0.201922 0.550855 0.354578
523 4 0.451922 0.699145 0.854578
524 4 0.0480784 0.800855 0.145422
525 4 0.798078 0.949145 0.645422
526 4 0.201922 0.0508552 0.354578
527 4 0.451922 0.199145 0.854578
528 4 0.0480784 0.300855 0.145422
529 4 0.386643 0.392898 0.613585
530 4 0.613356 0.607102 0.386416
531 4 0.863356 0.642898 0.886416
532 4 0.636644 0.857102 0.113584
533 4 0.386644 0.892898 0.613584
534 4 0.613356 0.107102 0.386416
535 4 0.863356 0.142898 0.886416
536 4 0.636644 0.357102 0.113584
537 4 0.886644 0.392898 0.613584
538 4 0.113356 0.607102 0.386416
539 4 0.363356 0.642898 0.886416
540 4 0.136644 0.857102 0.113584
541 4 0.886644 0.892898 0.613584
542 4 0.113356 0.107102 0.386416
543 4 0.363356 0.142898 0.886416
544 4 0.136644 0.357102 0.113584
545 4 0.197745 0.461716 0.823259
546 4 0.802255 0.538284 0.176742
547 4 0.052255 0.711716 0.676742
548 4 0.447745 0.788284 0.323258
549 4 0.197745 0.961716 0.823258
550 4 0.802255 0.0382842 0.176742
551 4 0.052255 0.211716 0.676742
552 4 0.447745 0.288284 0.323258
553 4 0.697745 0.461716 0.823258
554 4 0.302255 0.538284 0.176742
555 4 0.552255 0.711716 0.676742
556 4 0.947745 0.788284 0.323258
557 4 0.697745 0.961716 0.823258
558 4 0.302255 0.0382842 0.176742
559 4 0.552255 0.211716 0.676742
560 4 0.947745 0.288284 0.323258
561 4 0.198091 0.413811 0.965506
562 4 0.801909 0.586189 0.0344934
563 4 0.0519092 0.663811 0.534494
564 4 0.448091 0.836189 0.465507
565 4 0.198091 0.913811 0.965506
566 4 0.801909 0.0861893 0.0344934
567 4 0.0519092 0.163811 0.534494
568 4 0.448091 0.336189 0.465507
569 4 0.698091 0.413811 0.965506
570 4 0.301909 0.586189 0.0344934
571 4 0.551909 0.663811 0.534493
572 4 0.948091 0.836189 0.465507
573 4 0.698091 0.913811 0.965507
574 4 0.301909 0.0861893 0.0344935
575 4 0.551909 0.163811 0.534493
576 4 0.948091 0.336189 0.465507
ITEM: TIMESTEP
1000
ITEM: NUMBER OF ATOMS
576
ITEM: BOX BOUNDS xy xz yz pp pp pp
-5.0398228076261908e+00 1.8850042439594880e+01 2.3092510353549034e-01
-1.1730168773852210e+00 2.6433878509491979e+01 -4.1247059445667595e+00
-6.0186513458249546e-01 1.3415191817282530e+01 1.4886212040673655e-01
ITEM: ATOMS id type xs ys zs
1 1 0.255405 0.317854 0.866564
2 1 0.748819 0.681431 0.137849
3 1 0.000538379 0.570475 0.624854
4 1 0.496667 0.925777 0.386437
5 1 0.253859 0.816501 0.874022
6 1 0.759562 0.173319 0.116383
7 1 0.00276918 0.0701853 0.62261
8 1 0.485456 0.433553 0.364596
9 1 0.747315 0.327086 0.877499
10 1 0.268463 0.6809 0.127996
11 1 0.511306 0.579391 0.633703
12 1 0.00468233 0.921034 0.374997
13 1 0.740739 0.81887 0.878826
14 1 0.2534 0.177707 0.115982
15 1 0.516573 0.0769927 0.639458
16 1 0.983395 0.424278 0.37087
17 1 0.18355 0.318829 0.705186
18 1 0.822936 0.698651 0.288174
19 1 0.0714603 0.56038 0.786329
20 1 0.435155 0.938523 0.224306
21 1 0.182167 0.798717 0.717952
22 1 0.828888 0.188418 0.274524
23 1 0.0728983 0.0508201 0.780505
24 1 0.426656 0.45375 0.206152
25 1 0.675984 0.310723 0.722292
26 1 0.322099 0.6751 0.299496
27 1 0.579618 0.554354 0.792689
28 1 0.926886 0.942875 0.221542
29 1 0.664556 0.80607 0.722188
30 1 0.315915 0.189099 0.279027
31 1 0.570173 0.0614287 0.809518
32 1 0.916706 0.439888 0.208183
33 1 0.287495 0.267743 0.689635
34 1 0.715511 0.739815 0.300893
35 1 0.97129 0.507882 0.788526
36 1 0.54619 0.988196 0.238011
37 1 0.29702 0.758517 0.715082
38 1 0.730528 0.241439 0.276545
39 1 0.971273 0.997305 0.776846
40 1 0.542057 0.493309 0.213463
41 1 0.792215 0.268643 0.71943
42 1 0.21891 0.729636 0.292179
43 1 0.464019 0.510064 0.769181
44 1 0.0350804 0.986089 0.212911
45 1 0.773929 0.756698 0.723214
46 1 0.202044 0.241625 0.257982
47 1 0.454428 0.0152028 0.786888
48 1 0.0227789 0.493403 0.223027
49 1 0.321196 0.285988 0.854659
50 1 0.679766 0.708218 0.144525
51 1 0.934289 0.536235 0.628877
52 1 0.564719 0.956822 0.392056
53 1 0.322294 0.788062 0.875042
54 1 0.694883 0.208478 0.118011
55 1 0.93877 0.036286 0.622779
56 1 0.558106 0.461944 0.370511
57 1 0.817071 0.299941 0.876251
58 1 0.20315 0.713639 0.124199
59 1 0.442058 0.550404 0.625134
60 1 0.0721692 0.950781 0.368282
61 1 0.807571 0.786521 0.876155
62 1 0.186419 0.210983 0.105145
63 1 0.448085 0.0466727 0.627892
64 1 0.0502877 0.459179 0.378938
65 1 0.337283 0.31569 0.707212
66 1 0.677956 0.68795 0.299631
67 1 0.921007 0.555824 0.77803
68 1 0.590527 0.938929 0.246638
69 1 0.333868 0.80941 0.722111
70 1 0.677012 0.197822 0.271419
71 1 0.921208 0.0445332 0.77129
72 1 0.578923 0.442184 0.220312
73 1 0.826572 0.319735 0.721501
74 1 0.163509 0.686657 0.256397
75 1 0.424394 0.558975 0.776064
76 1 0.0720189 0.933967 0.210129
77 1 0.8168 0.804335 0.721608
78 1 0.158546 0.192853 0.251157
79 1 0.409829 0.0675874 0.77008
80 1 0.0724459 0.446453 0.226775
81 1 0.230405 0.363825 0.719429
82 1 0.788141 0.647998 0.296693
83 1 0.0234732 0.60729 0.777793
84 1 0.481315 0.891794 0.233596
85 1 0.217672 0.850278 0.714103
86 1 0.780004 0.144221 0.27336
87 1 0.0248859 0.0979037 0.781204
88 1 0.46375 0.40239 0.207598
89 1 0.714165 0.360966 0.720237
90 1 0.267944 0.63298 0.264506
91 1 0.538419 0.604019 0.797129
92 1 0.963408 0.893146 0.207859
93 1 0.710483 0.852654 0.71857
94 1 0.267918 0.14328 0.272956
95 1 0.527653 0.111705 0.794564
96 1 0.964091 0.395049 0.21176
97 2 0.262521 0.320573 0.943601
98 2 0.750922 0.67576 0.0658348
99 2 0.995791 0.575478 0.548982
100 2 0.492346 0.916505 0.461102
101 2 0.25685 0.822643 0.94978
102 2 0.757403 0.1642 0.041218
103 2 0.00134428 0.0840208 0.550911
104 2 0.476197 0.42797 0.435466
105 2 0.748574 0.340282 0.949509
106 2 0.284091 0.679529 0.060994
107 2 0.515094 0.588816 0.561208
108 2 0.00762558 0.91301 0.451646
109 2 0.74692 0.825169 0.957141
110 2 0.263226 0.170773 0.0475819
111 2 0.532309 0.0827975 0.572004
112 2 0.974886 0.416795 0.441051
113 2 0.128707 0.327141 0.662453
114 2 0.881209 0.694412 0.325389
115 2 0.127366 0.56914 0.828759
116 2 0.381593 0.929484 0.185609
117 2 0.123485 0.800261 0.678968
118 2 0.882554 0.180646 0.316748
119 2 0.128132 0.058709 0.825474
120 2 0.371532 0.455486 0.162497
121 2 0.617052 0.309301 0.683985
122 2 0.37557 0.662804 0.3454
123 2 0.636315 0.552334 0.841021
124 2 0.865884 0.939599 0.188867
125 2 0.606655 0.811972 0.682735
126 2 0.367553 0.1828 0.330384
127 2 0.622814 0.0649976 0.861471
128 2 0.858322 0.434248 0.166502
129 2 0.307051 0.242064 0.64577
130 2 0.692734 0.76491 0.347054
131 2 0.953577 0.479036 0.830656
132 2 0.563037 0.0144485 0.193292
133 2 0.317771 0.733727 0.671961
134 2 0.714874 0.271477 0.314651
135 2 0.959297 0.968708 0.820959
136 2 0.566238 0.518358 0.170957
137 2 0.803168 0.24358 0.669601
138 2 0.198235 0.757628 0.337321
139 2 0.444151 0.481668 0.805846
140 2 0.0496017 0.0114794 0.165324
141 2 0.790153 0.72731 0.680749
142 2 0.181702 0.268716 0.300017
143 2 0.429015 0.988544 0.823221
144 2 0.0379311 0.52105 0.177022
145 2 0.344274 0.269196 0.922481
146 2 0.645544 0.716823 0.0727996
147 2 0.902477 0.530126 0.552953
148 2 0.58871 0.966821 0.46682
149 2 0.356301 0.777406 0.948047
150 2 0.66995 0.223952 0.0441449
151 2 0.913739 0.0276288 0.547396
152 2 0.584768 0.472748 0.440652
153 2 0.847418 0.293529 0.952151
154 2 0.175661 0.727968 0.0528147
155 2 0.413558 0.549357 0.547797
156 2 0.105125 0.959117 0.436575
157 2 0.837595 0.774469 0.946899
158 2 0.159784 0.218282 0.0322578
159 2 0.423906 0.0367424 0.552368
160 2 0.0790439 0.464703 0.455972
161 2 0.375895 0.317695 0.664994
162 2 0.635495 0.693036 0.335149
163 2 0.87866 0.551035 0.810771
164 2 0.642649 0.938258 0.229254
165 2 0.37453 0.810998 0.681026
166 2 0.63732 0.204578 0.308435
167 2 0.873302 0.0374267 0.801425
168 2 0.624732 0.442961 0.194281
169 2 0.870484 0.318128 0.687369
170 2 0.116566 0.690655 0.284451
171 2 0.376412 0.558595 0.799969
172 2 0.114443 0.936242 0.169846
173 2 0.859888 0.795716 0.683304
174 2 0.112162 0.199371 0.280453
175 2 0.361682 0.071175 0.796892
176 2 0.113714 0.451565 0.189212
177 2 0.198202 0.397063 0.688252
178 2 0.828997 0.621423 0.336506
179 2 0.0549016 0.640435 0.807912
180 2 0.449856 0.860428 0.200157
181 2 0.174602 0.874977 0.669864
182 2 0.810623 0.112284 0.315313
183 2 0.058921 0.124151 0.82138
184 2 0.426348 0.374566 0.164702
185 2 0.671881 0.384911 0.674947
186 2 0.292604 0.598613 0.303063
187 2 0.573536 0.631163 0.843031
188 2 0.924816 0.867056 0.172569
189 2 0.673703 0.879155 0.672803
190 2 0.297624 0.112504 0.318054
191 2 0.561654 0.140198 0.842439
192 2 0.934594 0.366625 0.169808
193 3 0.188481 0.298124 0.804371
194 3 0.814762 0.711991 0.182782
195 3 0.0690387 0.545478 0.679931
196 3 0.429661 0.951294 0.32461
197 3 0.189105 0.785685 0.823481
198 3 0.827768 0.200192 0.170188
199 3 0.0731198 0.0435564 0.677672
200 3 0.424272 0.465403 0.306943
201 3 0.683156 0.297891 0.826009
202 3 0.332091 0.698177 0.207387
203 3 0.578076 0.549673 0.687449
204 3 0.935892 0.949374 0.329638
205 3 0.673365 0.794454 0.825043
206 3 0.320389 0.202046 0.179237
207 3 0.576985 0.0495565 0.710549
208 3 0.915147 0.447694 0.315676
209 3 0.1205 0.309349 0.832455
210 3 0.880333 0.697487 0.152568
211 3 0.136651 0.563545 0.66041
212 3 0.360221 0.935567 0.345717
213 3 0.12287 0.804865 0.846611
214 3 0.897302 0.182939 0.152429
215 3 0.141965 0.063977 0.665266
216 3 0.349487 0.456482 0.318668
217 3 0.617352 0.31079 0.855015
218 3 0.40491 0.684059 0.19222
219 3 0.648535 0.564045 0.670358
220 3 0.867433 0.933874 0.352544
221 3 0.608822 0.811628 0.854515
222 3 0.389113 0.182183 0.163687
223 3 0.650648 0.0588301 0.69837
224 3 0.845755 0.432805 0.33757
225 3 0.211276 0.282386 0.642078
226 3 0.795304 0.738246 0.341778
227 3 0.0500005 0.518525 0.832667
228 3 0.470152 0.97778 0.179813
229 3 0.213883 0.760944 0.669595
230 3 0.808486 0.232294 0.324434
231 3 0.0510588 0.00691545 0.826201
232 3 0.463066 0.493072 0.162338
233 3 0.707992 0.269937 0.67813
234 3 0.288357 0.711383 0.356377
235 3 0.544415 0.511703 0.822031
236 3 0.953983 0.983855 0.175428
237 3 0.695188 0.765295 0.67249
238 3 0.278912 0.230996 0.316012
239 3 0.526617 0.026551 0.848473
240 3 0.943168 0.484379 0.170548
241 3 0.166269 0.249839 0.563894
242 3 0.818379 0.727543 0.447805
243 3 0.0728259 0.521575 0.942992
244 3 0.42835 0.997201 0.0792634
245 3 0.191036 0.766531 0.561062
246 3 0.832139 0.223553 0.43282
247 3 0.0727441 0.00908466 0.935921
248 3 0.443154 0.489925 0.0546085
249 3 0.678719 0.270695 0.571235
250 3 0.336256 0.751471 0.410063
251 3 0.57198 0.506477 0.931416
252 3 0.920711 0.980044 0.0674284
253 3 0.663065 0.762421 0.564834
254 3 0.313796 0.247518 0.418743
255 3 0.565206 0.00343317 0.942315
256 3 0.905186 0.489883 0.0621531
257 3 0.304294 0.244315 0.786646
258 3 0.686186 0.757824 0.200284
259 3 0.94944 0.490204 0.688081
260 3 0.559393 0.00705496 0.33649
261 3 0.316952 0.740914 0.815752
262 3 0.714066 0.254238 0.17185
263 3 0.952455 0.983588 0.673428
264 3 0.559224 0.510357 0.317149
265 3 0.813264 0.247544 0.81642
266 3 0.221144 0.754405 0.202065
267 3 0.444624 0.496527 0.666478
268 3 0.0646797 0.000580916 0.316411
269 3 0.793201 0.73697 0.825161
270 3 0.19372 0.259392 0.156972
271 3 0.453209 0.99925 0.688917
272 3 0.0361273 0.506309 0.325126
273 3 0.244206 0.213114 0.79858
274 3 0.739459 0.790821 0.174715
275 3 0.00366105 0.455308 0.663606
276 3 0.498223 0.040391 0.340189
277 3 0.267857 0.705205 0.838775
278 3 0.767238 0.287879 0.150734
279 3 0.00973433 0.954622 0.648374
280 3 0.505279 0.545622 0.333428
281 3 0.760592 0.211166 0.830978
282 3 0.275578 0.790747 0.185678
283 3 0.500494 0.465102 0.642221
284 3 0.0132774 0.0364314 0.343525
285 3 0.732211 0.707502 0.841637
286 3 0.256054 0.290691 0.151988
287 3 0.513109 0.967515 0.682424
288 3 0.976626 0.535234 0.344733
289 3 0.373471 0.312626 0.811519
290 3 0.641582 0.676255 0.196377
291 3 0.89098 0.567265 0.67676
292 3 0.614858 0.930408 0.351495
293 3 0.368699 0.816935 0.82442
294 3 0.637816 0.190976 0.164811
295 3 0.891209 0.0610592 0.671975
296 3 0.600149 0.428232 0.326346
297 3 0.862779 0.327856 0.828563
298 3 0.141456 0.690571 0.149599
299 3 0.396285 0.577653 0.675211
300 3 0.108943 0.920854 0.310832
301 3 0.854458 0.813581 0.828461
302 3 0.133762 0.18212 0.145892
303 3 0.393071 0.0719455 0.665444
304 3 0.102531 0.43824 0.329293
305 3 0.407326 0.355724 0.8682
306 3 0.591967 0.639698 0.129997
307 3 0.833422 0.598452 0.610914
308 3 0.659289 0.893432 0.420997
309 3 0.396249 0.862561 0.87579
310 3 0.603306 0.142237 0.131788
311 3 0.836641 0.0936478 0.603813
312 3 0.664595 0.404181 0.401606
313 3 0.894656 0.374666 0.879261
314 3 0.096232 0.654894 0.0809002
315 3 0.352738 0.616421 0.606909
316 3 0.163348 0.885435 0.370242
317 3 0.904519 0.846205 0.903865
318 3 0.0815838 0.154829 0.0641289
319 3 0.360192 0.118425 0.617231
320 3 0.144883 0.392966 0.371284