LAMMPS data file via write_data, version 15 Apr 2020, timestep = 80000

576 atoms
4 atom types

-2.0442538181612058e-01 1.7908425854816354e+01 xlo xhi
-1.2258910522482083e+00 2.6337890563948136e+01 ylo yhi
-1.5428096858276126e+00 1.4356136368512917e+01 zlo zhi
2.9926949304079122e+00 -1.5226222843800443e+00 -1.4049238323515323e-01 xy xz yz

Masses

1 12.0107
2 1.00794
3 14.0067
4 15.9994

Atoms # full

19 1 1 8.9882895671557592e-02 2.3144761755018894e+00 1.3569733263890107e+01 7.8439337524162616e+00 0 0 0
23 1 1 6.9869446321531359e-02 7.4514269852959725e-01 -1.9799976606990133e-01 1.0924351819548626e+01 0 0 0
60 1 1 8.9847080564446125e-02 3.4170441354672239e+00 2.4016955327908676e+01 3.7723666355832561e+00 0 0 0
76 1 1 8.5560776739590449e-02 3.6736387737245733e+00 2.3568799730894074e+01 1.4308387336004724e+00 0 0 0
80 1 1 8.4375333859478457e-02 1.7994141272309296e+01 1.0090919418949868e+01 -8.0454326974527990e-01 -1 0 0
83 1 1 7.9006764158396137e-02 1.3140523826554145e+00 1.4550165415920040e+01 8.3936436027174679e+00 0 0 0
113 1 2 2.2619152933787007e-01 2.0566840155551054e+00 9.9734194323632011e+00 1.2231695801069971e+01 0 0 0
115 1 2 2.7124825915930900e-01 3.3887073850076153e+00 1.3606875688336046e+01 8.3571754368322502e+00 0 0 0
119 1 2 2.3515452003315176e-01 1.7515322225494774e+00 -3.1826104491139862e-01 1.1375286918178261e+01 0 0 0
156 1 2 2.3499534418567475e-01 4.0294665482342413e+00 2.4064697654428855e+01 4.7017047423204641e+00 0 0 0
160 1 2 2.3873619194081269e-01 1.8065826410100460e+01 9.5445501878985581e+00 2.4150250534930562e+00 -1 0 0
172 1 2 2.4828741727303041e-01 4.4797128829052593e+00 2.3447219082810598e+01 6.3006467105270536e-01 0 0 0
174 1 2 2.3380791973181009e-01 2.1368995806396547e+00 3.1186790352961502e+00 1.1283497277362806e+00 0 0 0
176 1 2 2.2403011127207739e-01 1.8892624219738234e+01 9.9629660684382131e+00 -1.4366518212150092e+00 -1 0 0
179 1 2 2.5234161403414662e-01 1.7814863303118815e+00 1.5173638893017934e+01 9.1868032008760103e+00 0 0 0
183 1 2 2.4794173587898466e-01 9.0062945413973439e-01 1.9397032067408664e+00 1.1584847164514777e+01 0 0 0
195 1 3 -2.3306864500009791e-01 2.5125546518464144e+00 1.4117033697533879e+01 6.2748348419992936e+00 0 0 0
199 1 3 -2.0505668573418967e-01 9.5259875151117890e-01 -4.1511598624820611e-01 9.4251689189480210e+00 0 0 0
209 1 3 4.4477222839019837e-01 4.5877939243405192e+00 1.0080802631205570e+01 -1.3868089663780152e+00 0 0 1
227 1 3 -2.1309990610199020e-01 1.9091361780032341e+00 1.2113368771906996e+01 7.8626013830012917e+00 0 0 0
231 1 3 -2.0237191650720446e-01 -6.8727642884908846e-02 -1.3101029520424592e+00 1.1565337877881692e+01 0 0 0
241 1 3 3.8519946297753171e-01 1.5600194257226836e+00 7.3569613962697353e+00 1.1961981717656336e+01 0 0 0
243 1 3 4.0720769228121118e-01 1.8336002036850316e+00 1.1642387349755014e+01 9.2570779871452231e+00 0 0 0
247 1 3 4.0293264090293446e-01 -3.2024832719866669e-02 -1.1996643635553430e+00 1.3097351907354142e+01 0 0 0
300 1 3 -2.3758582763882286e-01 4.0606263135846152e+00 2.3053809923491940e+01 2.8382180304181421e+00 0 0 0
302 1 3 -2.4488416683934147e-01 3.8561422395954703e+00 3.2337321646598420e+00 -1.8235236277363431e-01 0 0 0
304 1 3 -1.7583460690120312e-01 1.8132654599132238e+01 9.1207125363397594e+00 4.1644704799819521e-01 -1 0 0
314 1 3 4.2108919655650107e-01 1.6292861531976583e+00 1.5541244654508855e+01 -1.5074911338159094e+00 0 0 0
318 1 3 4.3711373680991700e-01 2.9316289081902736e+00 3.3260792537106401e+00 -1.3184740700405666e+00 0 0 0
320 1 3 3.8584115948668662e-01 1.4177567815474115e+00 8.5504034539774469e+00 5.7104188838466596e-01 0 0 0
346 1 3 4.3847387217581574e-01 2.2269394405928762e+00 1.5727328401783986e+01 2.3974112773555136e+00 0 0 0
350 1 3 4.5958651016426416e-01 3.5131762254745169e+00 7.7124610702120089e-01 1.5281828762431293e+00 0 0 0
355 1 3 -2.0973012015039422e-01 9.1338229774052704e-01 1.5570634719310064e+01 7.3247061356300316e+00 0 0 0
371 1 3 3.8809851236948217e-01 1.7069692074072353e+00 1.6873347492045038e+01 7.4350110134684249e+00 0 0 0
385 1 4 -2.3923260519775366e-01 5.3873986487120318e+00 1.0386614402412679e+01 -4.0844776415033568e-01 0 0 1
401 1 4 -3.3225277370791217e-01 3.4521693973184187e+00 1.0686192638492050e+01 -1.4704354087323552e+00 0 0 1
417 1 4 -2.4240258429810235e-01 1.8607107576235289e+00 7.0978586269956256e+00 1.3219037398702920e+01 0 0 0
419 1 4 -3.7311335613960994e-01 2.2543707129370523e+00 1.2465297835985899e+01 1.0194682860537760e+01 0 0 0
433 1 4 -2.0625499260662683e-01 6.4807360738273978e-01 6.6921860516782097e+00 1.1305965609411018e+01 0 0 0
435 1 4 -3.4059696510684490e-01 1.6312576515056800e+00 1.0362101871571367e+01 9.4506281688893807e+00 0 0 -1
439 1 4 -3.0873355029678951e-01 3.0606000264465871e-01 -1.0503985583540554e-01 1.3687933726719098e+01 0 0 -1
451 1 4 -2.1080911304389288e-01 2.5671485274904744e+00 1.1148998814198633e+01 5.5268548836084106e+00 0 0 0
455 1 4 -3.3117324178582663e-01 2.9820645171012243e+00 2.4402444406558139e+01 9.6345067834954889e+00 0 0 0
506 1 4 -2.6121510376062307e-01 1.8025899187505161e+01 1.4364271031322385e+01 1.3624295351595183e+01 -1 0 -1
522 1 4 -3.2323412038698335e-01 1.3330749596144895e+00 1.6182669347779338e+01 3.2368887999095284e+00 0 0 0
526 1 4 -2.6295214461230032e-01 4.4370486273278429e+00 -2.8322526644391610e-02 1.1608366042092673e+00 0 0 0
538 1 4 -2.6262353353305745e-01 1.9474419535502421e+00 1.4600513273292247e+01 1.7941155950528356e+00 0 0 0
540 1 4 -3.0606349456051857e-01 2.7130135910092745e+00 2.0363924388734649e+01 1.3188805776655053e+00 0 0 0
542 1 4 -3.1360808850572292e-01 2.2739527628192531e+00 4.0247011988764947e-01 1.4868125490125208e+00 0 0 0
544 1 4 -2.2812508239856352e-01 1.6457344153286794e+01 7.3713955724447437e+00 -1.2946516125234093e+00 -1 0 0
547 1 4 -2.8341559086791945e-01 2.7168170965490361e+00 1.6913586260957228e+01 8.2612197337938014e+00 0 0 0
563 1 4 -2.0504111962791916e-01 1.6156104748479043e+00 1.7808203378135950e+01 6.5410796666404645e+00 0 0 0
144 1 2 2.3703719816269142e-01 1.8724190572953365e+01 1.2179854637508949e+01 -7.0715484585917909e-01 -1 0 0
391 1 4 -2.6134257297333530e-01 3.3040633646657573e+00 1.1391291698147810e-01 9.9389083476835509e+00 0 0 0
512 1 4 -2.1175813791989112e-01 1.6784368028549541e+00 7.3815376045418617e+00 3.7953317298823563e-02 0 0 0
78 1 1 1.1101074705362227e-01 3.2468695613851009e+00 3.3307766223535440e+00 1.1394773698686675e+00 0 0 0
142 1 2 2.5649875757741342e-01 2.8564263763819207e+00 5.5088576825045781e+00 1.9141871276996438e+00 0 0 0
170 1 2 2.5294371589991999e-01 1.7769803775590600e+00 1.7267922350911615e+01 2.3266824797788677e-01 0 0 0
215 1 3 4.1944978303150032e-01 2.3841896008511743e+00 2.3446433000907430e-02 9.0269716600949614e+00 0 0 0
272 1 3 -2.0417423605574161e-01 1.8298146697973646e+01 1.1342371450266684e+01 1.2538979018677323e+00 -1 0 0
437 1 4 -3.7714239269727712e-01 3.7181826713275052e+00 2.2018198296800797e+01 5.9889067142288317e+00 0 0 0
17 1 1 8.2337416564526422e-02 2.9435982095409381e+00 9.3540292580706907e+00 1.2030412868849780e+01 0 0 0
46 1 1 1.0997258690358065e-01 3.6943810730908990e+00 4.7760703583508688e+00 1.6261201634181250e+00 0 0 0
74 1 1 8.9121439985290235e-02 2.8425151107110036e+00 1.6881147088427998e+01 2.7240319159395043e-01 0 0 0
154 1 2 2.3340813970448965e-01 2.5962779157775016e+00 1.4767730440365410e+01 1.3884845536848637e+01 0 0 -1
158 1 2 2.3513891500913167e-01 5.2640655390419457e+00 4.5185066529052582e+00 -1.2958722983350721e+00 0 0 0
177 1 2 2.5076522902590076e-01 3.8232691943762558e+00 1.1283718969386388e+01 1.1212872238385007e+01 0 0 0
193 1 3 -2.1220915120488842e-01 3.5055887296769583e+00 8.9613054994649453e+00 1.3443405608245410e+01 0 0 0
211 1 3 4.4432490532942576e-01 3.6812354556948499e+00 1.5101388356058166e+01 6.2320273204065941e+00 0 0 0
225 1 3 -1.9216111435994843e-01 2.5754434196503215e+00 8.1779637816351833e+00 1.1177040794274795e+01 0 0 0
245 1 3 4.1918931148434252e-01 4.0223904569452538e+00 2.0742017934162092e+01 5.9201458575853376e+00 0 0 0
298 1 3 -2.2353640680920162e-01 2.7719364475193324e+00 1.5575985144536212e+01 -5.1380946152270246e-01 0 0 0
316 1 3 4.4641554330690103e-01 5.5508688902599008e+00 2.2938461554079847e+01 3.0354571776240018e+00 0 0 0
330 1 3 -2.1687713438284756e-01 3.1434744028739434e+00 1.6708620420198770e+01 1.7485351426076461e+00 0 0 0
334 1 3 -2.4929658527130852e-01 3.8680963551985545e+00 2.2011114072529345e+00 1.9920268628984856e+00 0 0 0
407 1 4 -1.7907641220579404e-01 2.6429565229870242e+00 2.0017009935403407e-01 7.7920179033346058e+00 0 0 0
421 1 4 -2.3385311329030151e-01 3.4515082077029002e+00 2.0017817300716679e+01 5.0222593243207632e+00 0 0 0
449 1 4 -2.7849754800546123e-01 4.4078059465916333e+00 4.6250949977027744e+00 1.1107199852329060e+01 0 0 0
474 1 4 -2.4241781183398903e-01 2.4648500984906603e+00 1.6463115667528289e+01 1.1905526181283012e+01 0 0 -1
496 1 4 -2.2714480014296509e-01 2.3430665614871753e+00 9.2465308350766744e+00 1.0899274883010293e+00 0 0 0
508 1 4 -2.4367395696738611e-01 6.3545843787704790e+00 2.3224681272499396e+01 2.0477196478115083e+00 0 0 0
561 1 4 -3.6724614781081621e-01 4.1285895247760198e+00 1.2238652709061689e+01 1.3118928184342817e+01 0 0 0
64 1 1 7.6110278099276896e-02 1.7622409586447397e+01 1.0023433369032642e+01 1.5343708564337586e+00 -1 0 0
117 1 2 2.3112513251275132e-01 3.7920245319553638e+00 1.9942353172767451e+01 8.3827830354642536e+00 0 0 0
389 1 4 -2.3930306438928853e-01 4.1534892920031261e+00 1.8774825361998321e+01 1.0769370024762285e+01 0 0 0
405 1 4 -2.4298892469285344e-01 5.6575957398168484e+00 1.7267113683939368e+01 1.0074547118302888e+01 0 0 0
1 1 1 9.2508567107956366e-02 4.9928280717311679e+00 9.0431417755704953e+00 1.3187435782588569e+01 0 0 0
10 1 1 7.4345868903587062e-02 5.2888812068440263e+00 1.5092257655015796e+01 -2.2905728398375391e-01 0 0 0
14 1 1 8.0437952275124167e-02 6.3152701825087636e+00 3.6438460798235157e+00 4.1812259068802460e-01 0 0 0
21 1 1 8.3805698027634351e-02 4.7753216033919053e+00 2.0337860977147269e+01 8.3148021800217542e+00 0 0 0
26 1 1 6.9761731596940255e-02 5.6163800110920166e+00 1.7033068310218646e+01 1.0256399531918228e+00 0 0 0
30 1 1 7.6448687555808456e-02 5.6979888949194297e+00 3.7436820329910683e+00 2.7315899176604930e+00 0 0 0
33 1 1 7.3036931273014194e-02 3.8300789793975349e+00 7.3608808532186600e+00 1.0945286270941718e+01 0 0 0
37 1 1 1.0849195495028750e-01 6.4838823785453990e+00 2.0727785144001331e+01 6.5893247999054898e+00 0 0 0
42 1 1 9.3109337143082560e-02 3.8194041401351484e+00 1.7872026684796683e+01 -4.6105092439978312e-01 0 0 0
49 1 1 7.4965244036129086e-02 5.5758781922259901e+00 7.7840760713199657e+00 1.2490463155855490e+01 0 0 0
58 1 1 8.0380605799535113e-02 4.1704973186173815e+00 1.5588253715037268e+01 -1.1956046474721127e+00 0 0 0
62 1 1 9.5975742060839905e-02 5.0048248638968662e+00 4.2627060489445743e+00 -2.4325291067929622e-01 0 0 0
69 1 1 7.8438850000053198e-02 6.6429340588680770e+00 2.2187057553467088e+01 7.1537720165266991e+00 0 0 0
81 1 1 8.8261572192790308e-02 4.0706855267851587e+00 1.0189597653818558e+01 1.1314585754848633e+01 0 0 0
85 1 1 7.7861670734997529e-02 4.9478131389485540e+00 2.1775369233527368e+01 8.9406449048604664e+00 0 0 0
90 1 1 7.3194806078380512e-02 4.5781983485755644e+00 1.6108862493716394e+01 1.7271673695850427e+00 0 0 0
94 1 1 8.5577856551842649e-02 5.3378908144531749e+00 2.3822285486376487e+00 2.1586201304698012e+00 0 0 0
97 1 2 2.3678756070395574e-01 5.5071236040615776e+00 9.0973050059318332e+00 1.4181545488748068e+01 0 0 0
106 1 2 2.4201719699426524e-01 5.6802796725732021e+00 1.4186084379042764e+01 -6.9322307263912697e-01 0 0 0
110 1 2 2.2439661125797927e-01 7.1899909974165368e+00 3.7634909015768043e+00 -3.0276607608947592e-01 0 0 0
129 1 2 2.4251265788102577e-01 3.5721495558092915e+00 6.5041811650897454e+00 1.0317451564933450e+01 0 0 0
133 1 2 2.4481316836820971e-01 6.6620475773271428e+00 2.0658382279908054e+01 5.4768988283452256e+00 0 0 0
138 1 2 2.4862581677357440e-01 3.2426951844239293e+00 1.8755267883463912e+01 -7.8444895061873376e-01 0 0 0
181 1 2 2.4143212090668711e-01 3.9883404336797281e+00 2.2211158446588357e+01 9.3377833241852777e+00 0 0 0
186 1 2 2.4676889646236505e-01 4.9128151749634856e+00 1.6062835114541784e+01 2.8150346839287552e+00 0 0 0
190 1 2 2.5443096862300052e-01 5.8002174941785452e+00 1.6307767906719675e+00 2.8053587573349379e+00 0 0 0
197 1 3 -2.6463609713950198e-01 5.7571732775860074e+00 1.9426696875736866e+01 9.0346816192860615e+00 0 0 0
202 1 3 -2.0549567546392042e-01 6.3415948206169759e+00 1.6136465106985550e+01 1.0442944896625006e-02 0 0 0
206 1 3 -2.2762053078883471e-01 6.7215714736007524e+00 4.3261712423162342e+00 1.7124401436039594e+00 0 0 0
213 1 3 4.2192507782964894e-01 5.1240666945433695e+00 1.8449798481546406e+01 9.9686298277634862e+00 0 0 0
229 1 3 -2.2162800671551613e-01 5.0929968683291875e+00 2.0158669093962093e+01 6.8339882090285480e+00 0 0 0
234 1 3 -2.2543746790398764e-01 4.9531321273208384e+00 1.8283247440242768e+01 4.7663890115177976e-01 0 0 0
238 1 3 -2.3339990947820305e-01 4.5008602984465114e+00 4.6839408572529075e+00 2.8798467501182188e+00 0 0 0
254 1 3 4.0765320018196771e-01 3.5659001514142679e+00 4.3539056453736382e+00 4.0651000811070315e+00 0 0 0
257 1 3 -2.2436904666245827e-01 4.4237889331475664e+00 6.8136956496305512e+00 1.2259921940034911e+01 0 0 0
261 1 3 -2.6233392182855048e-01 7.5925852968632688e+00 1.9928388213175182e+01 7.2226404705133271e+00 0 0 0
266 1 3 -2.1471839972162057e-01 2.7883784012872619e+00 1.6887702181329949e+01 1.4272158201634284e+01 0 0 -1
270 1 3 -2.2155139011969269e-01 4.3380078545002227e+00 5.4484731898670322e+00 4.3223502772097766e-01 0 0 0
273 1 3 4.2626581693415755e-01 4.8753429807411006e+00 5.3663962226195254e+00 1.2065831918064969e+01 0 0 0
277 1 3 5.0275319197378310e-01 7.4357867501428796e+00 1.8453042409169210e+01 7.3388647289399875e+00 0 0 0
282 1 3 4.4358320221637171e-01 2.2061165091257315e+00 1.7244558474839181e+01 1.2928961509422386e+01 0 0 -1
286 1 3 4.5836709704122652e-01 5.2979774375691147e+00 6.6015928296629749e+00 7.4505737307131570e-01 0 0 0
321 1 3 -2.2388927119647659e-01 4.4401193495265403e+00 9.6445738184445045e+00 9.9627817648166648e+00 0 0 0
325 1 3 -2.3962641880928545e-01 5.4070111094860884e+00 2.2673171003210523e+01 7.8225761670898644e+00 0 0 0
341 1 3 4.0252790001730548e-01 5.6891923469152328e+00 2.4094229663346152e+01 8.2917408785096640e+00 0 0 0
353 1 3 -2.6024948844129170e-01 5.2856456459592271e+00 1.0242657996528255e+01 1.2297979229904723e+01 0 0 0
357 1 3 -1.9206556634799146e-01 5.9723409345900684e+00 2.1576539516442629e+01 1.0086620770097493e+01 0 0 0
362 1 3 -2.0310925868498333e-01 4.6513405879004077e+00 1.4712758867682860e+01 1.1248108321380199e+00 0 0 0
366 1 3 -2.3514890177027148e-01 6.0882785265218722e+00 2.2025714108708478e+00 7.5025615492638087e-01 0 0 0
369 1 3 4.4974901385593785e-01 5.2318315509463957e+00 1.1566350140910718e+01 1.3015720178462285e+01 0 0 0
373 1 3 3.8540691229510993e-01 5.2270636858442003e+00 2.1361298454319979e+01 1.1410923020500160e+01 0 0 0
378 1 3 4.0621611884813941e-01 5.4944500761890263e+00 1.3777675975217221e+01 1.9574734590539715e+00 0 0 0
387 1 4 -2.5324374801533001e-01 4.4415700159676010e+00 1.5192653646451177e+01 7.2817904685309776e+00 0 0 0
392 1 4 -2.5074821120517016e-01 5.1479865488384799e+00 1.0335719309674548e+01 4.4129964483407189e+00 0 0 0
403 1 4 -2.8675526559445191e-01 3.9630745343776081e+00 1.5696430629797486e+01 5.1271942467517677e+00 0 0 0
430 1 4 -2.1767320645498051e-01 4.0817484911892059e+00 4.0406738165940554e+00 5.2093405681582849e+00 0 0 0
446 1 4 -3.2998057018411381e-01 2.2771370081859392e+00 4.4023001359000995e+00 3.8272600607505325e+00 0 0 0
453 1 4 -2.5189864811460683e-01 6.6406446276553996e+00 1.7902862919934432e+01 6.4929161262548858e+00 0 0 0
458 1 4 -2.6528979274080211e-01 1.4377860767527304e+00 1.8285811931731800e+01 1.2850947913989742e+01 0 0 -1
462 1 4 -2.6354583784192015e-01 5.0841950252053341e+00 7.2793654243047570e+00 1.8398356735879591e+00 0 0 0
465 1 4 -3.7033069046784411e-01 5.3471366897558577e+00 4.7269051248390950e+00 1.3091561010705284e+01 0 0 0
478 1 4 -3.3629837622983283e-01 6.2876908462916923e+00 6.8431332413241002e+00 -4.8426867299975251e-02 0 0 0
492 1 4 -3.8163431474176057e-01 6.0428321130156339e+00 2.2533117918610721e+01 4.1615514766307342e+00 0 0 0
511 1 4 -2.3883893043038157e-01 7.4554756158615634e+00 2.6176252076454047e+00 9.5894379602360402e+00 0 0 0
517 1 4 -2.5797504394522391e-01 5.1497811161718490e+00 2.5118054420441979e+01 7.7581462533647185e+00 0 0 0
545 1 4 -3.2534994331983674e-01 6.2345492909447131e+00 1.1959532186479928e+01 1.3723807581366824e+01 0 0 0
549 1 4 -1.7027118645020606e-01 5.8910322476278898e+00 2.0875860514997324e+01 1.2418844092126196e+01 0 0 0
570 1 4 -2.3512220765413477e-01 5.4063447467844368e+00 1.2517035589288831e+01 1.6000074654330430e+00 0 0 0
126 1 2 2.4910112090662939e-01 6.0559660475620243e+00 3.5986954998642027e+00 3.7629889233147180e+00 0 0 0
165 1 2 2.3838984821322073e-01 6.7042995118093343e+00 2.2906072993994229e+01 6.3354305275730818e+00 0 0 0
175 1 2 2.2785395068020334e-01 7.0933200593929691e+00 2.5590504828281135e+00 1.1880159755844581e+01 0 0 0
212 1 3 3.9854539567291103e-01 8.1436426871953813e+00 8.9769701375897037e-01 5.6168205117405074e+00 0 1 0
222 1 3 3.9626229050154682e-01 8.1240830028679891e+00 4.0112275704021210e+00 2.1780510891942986e+00 0 0 0
250 1 3 4.0678383648705835e-01 5.9718004645441303e+00 1.9125437267192090e+01 -2.4727220997733279e-01 0 0 0
351 1 3 4.5091964425484349e-01 8.7674147276133088e+00 4.1479371980150868e+00 1.3519215149145733e+01 0 0 0
372 1 3 4.3942861332397032e-01 9.2163861446671653e+00 2.6162166370842499e+01 5.1541282198241865e+00 0 0 0
382 1 3 4.9926682733513639e-01 7.3240842801942971e+00 1.3219452161482321e+00 8.4324062114469500e-01 0 0 0
388 1 4 -3.0245203510528917e-01 7.0358706498323009e+00 9.6969874471946982e-01 4.9480680824940366e+00 0 1 0
398 1 4 -2.5730723680851852e-01 8.3773126066144474e+00 3.1942483366248275e+00 3.1610507834622474e+00 0 0 0
404 1 4 -1.4842303590206085e-01 8.5209319934944041e+00 1.9717879530733762e+00 6.2466670077390889e+00 0 1 0
408 1 4 -1.8988795930082319e-01 5.1654198001934057e+00 1.1772184260800723e+01 6.1590460359370249e+00 0 0 0
426 1 4 -2.0466723986412161e-01 6.8433097332815942e+00 1.9722880392024152e+01 4.6972592000425806e-01 0 0 0
442 1 4 -1.8114115909075440e-01 4.5705428406320685e+00 1.9012896120012041e+01 1.4333765260834912e+01 0 0 -1
491 1 4 -3.0081649032801805e-01 5.4090836516552132e+00 1.5292100519600613e+01 1.2868609569587896e+01 0 0 0
533 1 4 -2.1580474489270424e-01 6.5654167546357876e+00 2.4285030529762498e+01 9.2576074148366736e+00 0 0 0
543 1 4 -2.2470879071538075e-01 9.8197144837769663e+00 4.6688370698558623e+00 1.4036449241147768e+01 0 0 0
548 1 4 -2.0942937671965917e-01 5.6502708344427397e+00 -1.1548364804836033e+00 6.2882778344751245e+00 0 1 0
558 1 4 -3.9580086867242403e-01 7.5043178955267571e+00 7.1678626451976291e-01 1.9784896754715735e+00 0 0 0
564 1 4 -2.8456292983754156e-01 5.7216637563300905e+00 -1.0778584567982856e+00 4.0162789508023939e+00 0 1 0
574 1 4 -3.6535008469916191e-01 8.2369490208095595e+00 1.4706882052924830e+00 -6.4702227327856354e-02 0 0 0
348 1 3 4.3827431768585429e-01 2.9440105545676074e+00 2.1358197893643560e+01 4.9781545065843291e-01 0 0 0
352 1 3 4.1030793456233766e-01 1.5205533493230904e+01 8.2178104877566991e+00 1.3805599536013506e+01 -1 0 -1
528 1 4 -2.9217037949123259e-01 1.5652282022693369e+01 7.9718758923245741e+00 1.2638011918846583e+01 -1 0 -1
48 1 1 7.7128580847804856e-02 1.7989966293743539e+01 1.1515043300747440e+01 -2.5976993617215727e-01 -1 0 0
490 1 4 -2.7140860430316749e-01 1.7543584559527364e+01 1.6485695596390460e+01 1.4223100895479444e+01 -1 0 -1
5 1 1 8.7766810263229841e-02 6.7395011571261918e+00 2.0342185394589983e+01 9.6273230338040676e+00 0 0 0
65 1 1 8.8915342869749295e-02 4.9200566548286746e+00 8.2356310084173625e+00 1.0270665922353210e+01 0 0 0
101 1 2 2.3313354325093705e-01 7.1967427727977000e+00 1.9813921530349564e+01 1.0463881576166749e+01 0 0 0
337 1 3 4.3312894594904250e-01 5.5200584233845227e+00 1.0510579855608203e+01 9.3246348759687194e+00 0 0 0
469 1 4 -3.6540340688998846e-01 8.0471107773457291e+00 1.7779038451613882e+01 8.2487705156753393e+00 0 0 0
554 1 4 -2.8518897167869034e-01 5.9893859597228278e+00 1.4168831035048607e+01 3.0757031601341458e+00 0 0 0
565 1 4 -2.2378373007880192e-01 3.9542998139912195e+00 2.1505875892728817e+01 1.1563790594674156e+01 0 0 0
53 1 1 9.8769725222406290e-02 7.8521321565731892e+00 2.0601227165607238e+01 8.5045562553140428e+00 0 0 0
79 1 1 8.5660885582182919e-02 8.0246354569289799e+00 2.0482484672552608e+00 1.2274293885885729e+01 0 0 0
84 1 1 9.6312935489557022e-02 1.1257456907873113e+01 2.5631736288874347e+01 3.8298296237498972e+00 0 0 0
100 1 2 2.7060263225347897e-01 7.9964707464296918e+00 -1.2807708917260721e+00 7.1014826535877065e+00 0 1 0
116 1 2 2.6915911156567157e-01 9.2020613443465091e+00 7.9215717824114629e-02 3.3815343975571350e+00 0 1 0
120 1 2 2.5965953344962101e-01 6.7796025670325655e+00 1.0780287313630836e+01 2.8905667676533628e+00 0 0 0
122 1 2 2.4064601503251851e-01 6.3632583996807277e+00 1.7506871365402059e+01 1.7453275429565340e+00 0 0 0
145 1 2 2.3033756988563636e-01 6.2627128383223951e+00 7.3367587917337236e+00 1.3157880183894225e+01 0 0 0
161 1 2 2.4673057213415578e-01 5.1796524435182469e+00 7.9047226302196432e+00 9.2503708357829986e+00 0 0 0
180 1 2 2.5990553235708780e-01 1.0553397721803023e+01 2.5889284708584697e+01 3.0193652266229378e+00 0 0 0
216 1 3 4.1261023742556285e-01 5.7798471497789867e+00 1.1186105034490211e+01 5.1348995976249725e+00 0 0 0
218 1 3 4.1552063439896081e-01 7.6216800057639631e+00 1.5572201562680799e+01 6.5065109491106154e-01 0 0 0
289 1 3 -2.2374451656196254e-01 6.1774599696229515e+00 8.0613738194266755e+00 1.1112372632557296e+01 0 0 0
293 1 3 -1.9420139241577802e-01 7.8306153262899763e+00 2.2111622675190990e+01 8.1476591863011549e+00 0 0 0
303 1 3 -2.0368758654126995e-01 9.2024484715903565e+00 2.2236538676267643e+00 1.1230313936510640e+01 0 0 0
309 1 3 4.3973105563375831e-01 9.1379981366290863e+00 2.2526459663478146e+01 7.5276032889377253e+00 0 0 0
315 1 3 4.4685517460552837e-01 5.9870753084138109e+00 1.4812784699156900e+01 1.1813400449413539e+01 0 0 0
319 1 3 4.1155037429814778e-01 8.7146499125112875e+00 2.7793004609330874e+00 9.8830629785363477e+00 0 0 0
335 1 3 -2.3080507573898423e-01 8.4307436262810356e+00 2.6327706857515922e+00 1.3601818990061130e+01 0 0 0
356 1 3 -2.1586624985421021e-01 1.0566988256176677e+01 2.5486605424800100e+01 5.1262530654791032e+00 0 0 0
394 1 4 -2.5338168199559485e-01 8.1405688372029612e+00 1.6097488492849546e+01 1.7080153366247002e+00 0 0 0
414 1 4 -2.2054331987302717e-01 9.2083992266111352e+00 4.3505711927277622e+00 1.4948514103743853e+00 0 0 0
507 1 4 -2.8761730033000593e-01 5.3551902378570482e+00 1.4135275820266154e+01 1.0918962263404076e+01 0 0 0
516 1 4 -2.4224904188876814e-01 9.9174660433147039e+00 2.3147578222133877e+01 3.5672315482040338e+00 0 0 0
527 1 4 -2.8358228988902923e-01 7.8978142077049096e+00 4.8796685926848493e+00 1.2903006620794852e+01 0 0 0
568 1 4 -2.7832447859128323e-01 6.3294099740034362e+00 8.8418510975864688e+00 6.7870517296140820e+00 0 0 0
4 1 1 8.1908070441930741e-02 1.1551678962100182e+01 2.6059363168823186e+01 6.1745015248116495e+00 0 0 0
20 1 1 8.1481735435915165e-02 9.3068758123599462e+00 -7.4580925083570604e-01 4.0524351736177291e+00 0 1 0
143 1 2 2.2910934074204697e-01 6.6505867562088961e+00 3.0366694420075158e-01 1.2044176225815239e+01 0 1 0
196 1 3 -2.2873640983130214e-01 9.1073255519324974e+00 -3.0653915293256873e-01 5.4982640042689326e+00 0 1 0
200 1 3 -2.2125220304736126e-01 7.2267801906895919e+00 1.1479889325821784e+01 4.9204392638666965e+00 0 0 0
340 1 3 4.3652139641018983e-01 1.1090304492614877e+01 2.3169336376864415e+01 3.0518651904510659e+00 0 0 0
463 1 4 -3.5641286455794241e-01 8.5091329697683253e+00 -4.8625737555999016e-01 8.8115495485677542e+00 0 1 0
479 1 4 -2.3341304639018437e-01 6.7193728788187936e+00 -1.0029460571368063e+00 1.0084885028293932e+01 0 1 0
501 1 4 -2.6671787483948939e-01 9.4851370396303363e+00 2.3723827801632851e+01 7.2351784324582917e+00 0 0 0
567 1 4 -2.4781226146633933e-01 1.9902725032897177e+00 2.7920676737764296e+00 9.3519144161695351e+00 0 0 0
99 1 2 2.5461081680894604e-01 1.4370977217708405e+00 1.5578540227038033e+01 5.2151919832517466e+00 0 0 0
432 1 4 -1.8808881764915605e-01 1.4757554361750270e+01 1.3738339367165413e+01 1.3453936435680820e+01 0 0 -1
513 1 4 -2.9689001168868756e-01 6.7114314785865963e+00 1.0006439502289496e+01 9.1136722327748743e+00 0 0 0
305 1 3 4.4977932956732236e-01 7.1282303724091483e+00 7.0022147022960333e+00 1.0546001406042947e+01 0 0 0
376 1 3 4.4080182435237847e-01 7.0037610675575710e+00 8.4665415026296866e+00 5.7482573113743110e+00 0 0 0
410 1 4 -2.7779747421119133e-01 7.9997776466382602e+00 1.4420787446843429e+01 2.2485524136849366e-01 0 0 0
481 1 4 -2.6436142668313828e-01 6.6712774158945223e+00 5.9948600297525800e+00 9.8777177265733975e+00 0 0 0
495 1 4 -2.0132526389672167e-01 9.4838445602566690e+00 3.4209528208498288e+00 9.1019295544015542e+00 0 0 0
497 1 4 -3.2819400816862287e-01 8.3570881335611862e+00 7.0769488192944685e+00 1.0896657931649710e+01 0 0 0
529 1 4 -2.7335706607146160e-01 5.2667811248701835e+00 1.1693794835318599e+01 8.8618959213961084e+00 0 0 0
552 1 4 -2.4898186807044384e-01 6.7834780408754858e+00 7.3578398394062798e+00 5.1145289483982435e+00 0 0 0
8 1 1 8.1281358230430034e-02 8.1621275270785141e+00 1.0711867362219532e+01 5.8903072600889823e+00 0 0 0
11 1 1 7.8533356682094171e-02 9.3664931024600531e+00 1.5301743429262217e+01 9.8963725086025782e+00 0 0 0
15 1 1 1.1084548928643322e-01 1.0825537745016160e+01 6.9021828973227373e-01 1.2416114786470708e+01 0 0 0
24 1 1 9.1333287568490712e-02 7.6529704847153024e+00 1.0898344866185008e+01 3.5626492974765105e+00 0 0 0
27 1 1 8.4617212387171431e-02 1.0895843152197635e+01 1.4351529469819637e+01 1.1373418134618618e+01 0 0 0
29 1 1 9.1270586763540759e-02 1.3796620183787168e+01 2.1161753779178309e+01 1.0230029693844635e+01 0 0 0
31 1 1 9.2208577785375612e-02 9.2638289174125923e+00 2.6705155241939904e-01 1.4168384590058629e+01 0 0 0
36 1 1 9.7066667422678304e-02 1.4035288934107772e+01 2.5250354330676508e+01 4.6375707676040747e+00 0 0 0
40 1 1 9.3782033641212861e-02 9.9286971245827438e+00 1.1939462145216552e+01 3.6369647654727828e+00 0 0 0
43 1 1 9.5473451695618106e-02 8.8526980533702844e+00 1.3197367034044369e+01 1.2003903075033126e+01 0 0 0
47 1 1 5.9223312133372834e-02 7.6991231644315414e+00 5.5770835199834878e-01 1.2269791884015785e+01 0 0 0
52 1 1 9.6972008095342621e-02 1.2670833587935530e+01 2.4971144863544893e+01 6.5001532108768432e+00 0 0 0
56 1 1 8.4839937343208244e-02 9.5728734262122117e+00 1.1428146985666496e+01 5.9218685683286028e+00 0 0 0
59 1 1 9.6690490015560210e-02 8.0233031836042183e+00 1.4563393365481943e+01 1.0298832013729097e+01 0 0 0
63 1 1 9.4923650870145412e-02 9.7800528883738860e+00 8.9111029950512188e-01 1.1131460325365765e+01 0 0 0
68 1 1 7.6123322081219871e-02 1.3022745319080595e+01 2.4019874809446591e+01 4.3889718206799984e+00 0 0 0
72 1 1 8.3399960609724377e-02 1.0574214136352881e+01 1.0550904580662779e+01 4.0148842602180919e+00 0 0 0
75 1 1 8.4829052246372799e-02 8.3619505723587331e+00 1.4569730332478924e+01 1.2641029645835197e+01 0 0 0
88 1 1 7.7353309172179377e-02 8.3182123606824590e+00 9.4928527041058466e+00 3.8302421347003932e+00 0 0 0
91 1 1 6.6590183841673437e-02 1.0394449911431103e+01 1.5652017341977995e+01 1.2012995726420115e+01 0 0 0
95 1 1 1.0636027692460358e-01 9.6001033952062507e+00 1.8290814649157277e+00 1.4098290220771936e+01 0 0 0
104 1 2 2.5798177954046536e-01 7.7517006934618600e+00 1.0794659476730400e+01 6.8968973127936026e+00 0 0 0
107 1 2 2.4295577418896280e-01 9.1217390001901641e+00 1.5783686173756077e+01 8.8665349639911888e+00 0 0 0
111 1 2 2.4477712353952977e-01 1.1814119808504051e+01 3.7531560571830336e-01 1.2032535829057313e+01 0 0 0
121 1 2 2.6404707700959562e-01 1.0353181078424871e+01 6.0722759943474358e+00 9.9853026025536309e+00 0 0 0
123 1 2 2.4527995092368107e-01 1.2017589017818263e+01 1.4382962581957136e+01 1.1450162057825260e+01 0 0 0
125 1 2 2.4171206221854341e-01 1.3350618214164111e+01 2.0976880947384789e+01 9.2522662758268019e+00 0 0 0
127 1 2 2.4260006113345292e-01 1.0879026641738362e+01 4.2637831896668255e-02 -6.7842470731192017e-01 0 0 1
132 1 2 2.5817411689303771e-01 1.5081962454680431e+01 2.4930778051211782e+01 4.2858540101634821e+00 0 -1 0
136 1 2 2.6549291672334924e-01 1.0619181043157793e+01 1.2536667020442845e+01 3.0282383254664733e+00 0 0 0
139 1 2 2.3210555622663237e-01 8.4599320184176143e+00 1.2284512802600119e+01 1.2582449969683111e+01 0 0 0
146 1 2 2.4045723262512675e-01 1.2192640127747159e+01 1.9810582305698201e+01 1.4353227824641039e+00 0 0 0
148 1 2 2.7963112995078321e-01 1.2711982444080096e+01 2.4676128698877221e+01 7.5709195307651749e+00 0 0 0
149 1 2 2.5322548954429647e-01 8.8812356105634009e+00 2.0324426144959627e+01 8.8469633652019581e+00 0 0 0
152 1 2 2.7525560614210398e-01 9.8328369708934495e+00 1.1793315913661866e+01 6.9373017751929522e+00 0 0 0
155 1 2 2.5502385411647338e-01 7.3066533093089063e+00 1.4771373422982837e+01 9.5544565073056269e+00 0 0 0
159 1 2 2.4567219714302832e-01 1.0367958518078385e+01 7.6237156872696121e-01 1.0203920772317865e+01 0 0 0
162 1 2 2.3311033127360953e-01 1.1914234649571227e+01 1.7447102466778404e+01 4.7967942310488159e+00 0 0 0
164 1 2 2.1388048465494960e-01 1.3591811031984168e+01 2.3127135756608094e+01 4.0458863129587579e+00 0 0 0
166 1 2 2.5093830311327286e-01 1.3282125691052775e+01 1.8373384678330749e+00 4.6992444109281619e+00 0 0 0
168 1 2 2.3816296362524655e-01 1.1651735113040361e+01 1.0375094656712127e+01 3.7330602226605034e+00 0 0 0
171 1 2 2.3878097915370514e-01 7.6775808963024854e+00 1.4347157213105104e+01 1.3463952661877197e+01 0 0 0
184 1 2 2.3165201273355879e-01 7.7508170611973561e+00 8.6942003130303966e+00 3.2859610111210902e+00 0 0 0