ITEM: TIMESTEP
0
ITEM: NUMBER OF ATOMS
448
ITEM: BOX BOUNDS xy xz yz pp pp pp
-2.4186686450000000e-01 1.3879200000000001e+01 8.1284706647000001e-16
0.0000000000000000e+00 1.3274800000000003e+01 -2.4186686450000000e-01
0.0000000000000000e+00 2.2679910358299999e+01 1.4036330231000001e-15
ITEM: ATOMS id type xs ys zs
1 1 0.342722 0.121156 0.262985
2 2 0.244528 0.125747 0.255815
3 3 0.220503 0.153491 0.214384
4 3 0.201499 0.0965939 0.289865
5 2 0.401886 0.150642 0.218904
6 3 0.482209 0.145503 0.229915
7 3 0.367799 0.174846 0.179614
8 1 0.382846 0.0859264 0.318634
9 2 0.318705 0.064417 0.369432
10 4 0.351863 0.0808931 0.422242
11 4 0.232351 0.0304784 0.357076
12 2 0.487513 0.0733506 0.32763
13 4 0.515303 0.0316312 0.377279
14 4 0.544813 0.104862 0.285978
15 1 0.407278 0.371156 0.487015
16 2 0.505471 0.375747 0.494184
17 3 0.529497 0.403491 0.535616
18 3 0.548501 0.346594 0.460135
19 2 0.348114 0.400642 0.531096
20 3 0.267791 0.395503 0.520085
21 3 0.382201 0.424846 0.570386
22 1 0.367154 0.335927 0.431367
23 2 0.431295 0.314417 0.380568
24 4 0.398137 0.330893 0.327758
25 4 0.517649 0.280478 0.392924
26 2 0.262487 0.323351 0.42237
27 4 0.234697 0.281631 0.372721
28 4 0.205187 0.354862 0.464022
29 1 0.157278 0.378844 0.237015
30 2 0.255477 0.374253 0.244185
31 3 0.279498 0.346509 0.285616
32 3 0.298501 0.403406 0.210135
33 2 0.0981109 0.349357 0.281099
34 3 0.0177912 0.354497 0.270085
35 3 0.132201 0.325154 0.320386
36 1 0.117151 0.414076 0.181363
37 2 0.181295 0.435583 0.130568
38 4 0.148137 0.419107 0.0777586
39 4 0.267649 0.469521 0.142924
40 2 0.0124876 0.426649 0.17237
41 4 0.984697 0.468368 0.122721
42 4 0.955188 0.395139 0.214021
43 1 0.0927221 0.128844 0.0129853
44 2 0.994527 0.124253 0.0058154
45 3 0.970503 0.0965091 0.964384
46 3 0.951499 0.153406 0.0398652
47 2 0.151887 0.0993578 0.968903
48 3 0.232209 0.104497 0.979915
49 3 0.117799 0.0751542 0.929614
50 1 0.132847 0.164074 0.0686342
51 2 0.068705 0.185583 0.119432
52 4 0.101863 0.169107 0.172242
53 4 0.982351 0.219522 0.107076
54 2 0.237513 0.176649 0.0776296
55 4 0.265303 0.218369 0.127279
56 4 0.294813 0.145138 0.0359785
57 1 0.842722 0.121156 0.262985
58 2 0.744524 0.125747 0.255815
59 3 0.720502 0.153491 0.214384
60 3 0.701499 0.0965939 0.289865
61 2 0.901888 0.150643 0.218902
62 3 0.982209 0.145503 0.229915
63 3 0.867799 0.174846 0.179614
64 1 0.882848 0.0859249 0.318636
65 2 0.818705 0.064417 0.369432
66 4 0.851863 0.080893 0.422242
67 4 0.732351 0.0304785 0.357076
68 2 0.987513 0.0733505 0.32763
69 4 0.0153032 0.0316315 0.377279
70 4 0.0448124 0.104861 0.285979
71 1 0.907278 0.371156 0.487015
72 2 0.0054742 0.375747 0.494185
73 3 0.0294975 0.403491 0.535616
74 3 0.0485011 0.346594 0.460135
75 2 0.848113 0.400643 0.531097
76 3 0.767791 0.395503 0.520085
77 3 0.882201 0.424846 0.570386
78 1 0.867153 0.335926 0.431365
79 2 0.931295 0.314417 0.380568
80 4 0.898137 0.330893 0.327758
81 4 0.017649 0.280478 0.392924
82 2 0.762487 0.323351 0.42237
83 4 0.734697 0.281631 0.372721
84 4 0.705187 0.354861 0.464021
85 1 0.657277 0.378845 0.237013
86 2 0.755457 0.374254 0.244183
87 3 0.779497 0.346509 0.285616
88 3 0.7985 0.403406 0.210135
89 2 0.598123 0.349363 0.281089
90 3 0.517792 0.354497 0.270085
91 3 0.632201 0.325155 0.320386
92 1 0.617162 0.414067 0.181377
93 2 0.681295 0.435583 0.130568
94 4 0.648136 0.419107 0.0777569
95 4 0.767651 0.469522 0.142925
96 2 0.512487 0.42665 0.17237
97 4 0.484696 0.46837 0.12272
98 4 0.455186 0.395137 0.214023
99 1 0.592722 0.128844 0.0129853
100 2 0.494526 0.124253 0.00581535
101 3 0.470502 0.0965091 0.964384
102 3 0.451499 0.153406 0.0398653
103 2 0.651887 0.0993575 0.968903
104 3 0.732209 0.104497 0.979915
105 3 0.617799 0.0751542 0.929614
106 1 0.632847 0.164074 0.0686348
107 2 0.568705 0.185583 0.119432
108 4 0.601863 0.169107 0.172242
109 4 0.482351 0.219521 0.107076
110 2 0.737512 0.176649 0.0776296
111 4 0.765303 0.218369 0.127279
112 4 0.794813 0.145139 0.0359786
113 1 0.342722 0.621156 0.262985
114 2 0.244529 0.625747 0.255816
115 3 0.220503 0.653491 0.214384
116 3 0.201499 0.596594 0.289865
117 2 0.401886 0.650642 0.218904
118 3 0.482209 0.645503 0.229915
119 3 0.367799 0.674846 0.179614
120 1 0.382846 0.585927 0.318633
121 2 0.318705 0.564417 0.369432
122 4 0.351863 0.580893 0.422242
123 4 0.232351 0.530478 0.357076
124 2 0.487513 0.573351 0.32763
125 4 0.515303 0.531631 0.377279
126 4 0.544813 0.604862 0.285978
127 1 0.407278 0.871156 0.487015
128 2 0.50547 0.875747 0.494184
129 3 0.529497 0.903491 0.535616
130 3 0.548501 0.846594 0.460135
131 2 0.348115 0.900641 0.531096
132 3 0.267791 0.895503 0.520085
133 3 0.382201 0.924846 0.570386
134 1 0.367155 0.835927 0.431368
135 2 0.431295 0.814417 0.380568
136 4 0.398137 0.830893 0.327758
137 4 0.51765 0.780478 0.392924
138 2 0.262487 0.823351 0.42237
139 4 0.234697 0.781631 0.372721
140 4 0.205187 0.854862 0.464022
141 1 0.157278 0.878844 0.237015
142 2 0.255478 0.874253 0.244185
143 3 0.279498 0.846509 0.285616
144 3 0.298501 0.903406 0.210135
145 2 0.0981105 0.849356 0.281099
146 3 0.0177911 0.854497 0.270085
147 3 0.132201 0.825154 0.320386
148 1 0.117151 0.914076 0.181363
149 2 0.181295 0.935583 0.130568
150 4 0.148137 0.919107 0.0777587
151 4 0.267649 0.969521 0.142924
152 2 0.0124876 0.926649 0.17237
153 4 0.984697 0.968368 0.122722
154 4 0.955188 0.895139 0.214021
155 1 0.0927221 0.628844 0.0129853
156 2 0.994527 0.624253 0.00581537
157 3 0.970503 0.596509 0.964384
158 3 0.951499 0.653406 0.0398653
159 2 0.151887 0.599358 0.968903
160 3 0.232209 0.604497 0.979915
161 3 0.117799 0.575154 0.929614
162 1 0.132847 0.664074 0.0686344
163 2 0.068705 0.685583 0.119432
164 4 0.101863 0.669107 0.172242
165 4 0.982351 0.719522 0.107076
166 2 0.237513 0.676649 0.0776296
167 4 0.265303 0.718369 0.127279
168 4 0.294813 0.645138 0.0359786
169 1 0.842722 0.621156 0.262985
170 2 0.744524 0.625747 0.255815
171 3 0.720502 0.653491 0.214384
172 3 0.701499 0.596594 0.289865
173 2 0.901889 0.650643 0.218902
174 3 0.982209 0.645503 0.229915
175 3 0.867799 0.674846 0.179614
176 1 0.882848 0.585925 0.318636
177 2 0.818705 0.564417 0.369432
178 4 0.851863 0.580893 0.422242
179 4 0.732351 0.530479 0.357076
180 2 0.987513 0.573351 0.32763
181 4 0.0153031 0.531632 0.377279
182 4 0.0448124 0.604861 0.285979
183 1 0.907278 0.871156 0.487015
184 2 0.00547468 0.875747 0.494185
185 3 0.0294975 0.903491 0.535616
186 3 0.0485011 0.846594 0.460135
187 2 0.848112 0.900643 0.531098
188 3 0.767791 0.895503 0.520085
189 3 0.882201 0.924846 0.570386
190 1 0.867153 0.835925 0.431365
191 2 0.931295 0.814417 0.380568
192 4 0.898137 0.830893 0.327758
193 4 0.017649 0.780478 0.392924
194 2 0.762487 0.823351 0.42237
195 4 0.734697 0.781631 0.372721
196 4 0.705188 0.854861 0.464021
197 1 0.657277 0.878845 0.237013
198 2 0.755456 0.874254 0.244183
199 3 0.779497 0.846509 0.285616
200 3 0.7985 0.903406 0.210135
201 2 0.598123 0.849363 0.281089
202 3 0.517792 0.854497 0.270085
203 3 0.632201 0.825155 0.320386
204 1 0.617162 0.914067 0.181377
205 2 0.681295 0.935583 0.130568
206 4 0.648136 0.919107 0.0777568
207 4 0.767651 0.969522 0.142925
208 2 0.512487 0.92665 0.17237
209 4 0.484696 0.96837 0.12272
210 4 0.455186 0.895137 0.214023
211 1 0.592722 0.628844 0.0129853
212 2 0.494526 0.624253 0.00581535
213 3 0.470502 0.596509 0.964384
214 3 0.451499 0.653406 0.0398653
215 2 0.651887 0.599357 0.968903
216 3 0.732209 0.604497 0.979915
217 3 0.617799 0.575154 0.929614
218 1 0.632847 0.664074 0.0686348
219 2 0.568705 0.685583 0.119432
220 4 0.601863 0.669107 0.172242
221 4 0.482351 0.719521 0.107076
222 2 0.737513 0.676649 0.0776296
223 4 0.765303 0.718369 0.127279
224 4 0.794813 0.645139 0.0359786
225 1 0.342722 0.121156 0.762985
226 2 0.244524 0.125747 0.755815
227 3 0.220502 0.153491 0.714384
228 3 0.201499 0.0965939 0.789865
229 2 0.401889 0.150643 0.718902
230 3 0.482209 0.145503 0.729915
231 3 0.367799 0.174846 0.679614
232 1 0.382848 0.0859246 0.818636
233 2 0.318705 0.064417 0.869432
234 4 0.351863 0.0808925 0.922242
235 4 0.232351 0.0304786 0.857076
236 2 0.487512 0.0733505 0.82763
237 4 0.515303 0.0316316 0.877279
238 4 0.544812 0.104861 0.785979
239 1 0.407242 0.371119 0.986955
240 2 0.505239 0.375736 0.99417
241 3 0.529492 0.403488 0.0356133
242 3 0.548495 0.346593 0.960134
243 2 0.348255 0.400573 0.0309939
244 3 0.26779 0.395502 0.020084
245 3 0.382203 0.424844 0.0703827
246 1 0.367301 0.336066 0.931598
247 2 0.431283 0.314421 0.880571
248 4 0.398102 0.33091 0.827704
249 4 0.517737 0.280448 0.892943
250 2 0.2625 0.323355 0.922374
251 4 0.234669 0.281595 0.872676
252 4 0.205151 0.354888 0.964057
253 1 0.157278 0.378844 0.737015
254 2 0.25548 0.374253 0.744185
255 3 0.279499 0.346509 0.785616
256 3 0.298501 0.403406 0.710135
257 2 0.0981102 0.349356 0.7811
258 3 0.0177915 0.354497 0.770086
259 3 0.132202 0.325154 0.820386
260 1 0.11715 0.414077 0.681362
261 2 0.181295 0.435583 0.630568
262 4 0.148137 0.419107 0.577759
263 4 0.267648 0.469521 0.642924
264 2 0.0124879 0.426649 0.67237
265 4 0.984697 0.468368 0.622722
266 4 0.955188 0.395139 0.714021
267 1 0.0927221 0.128844 0.512985
268 2 0.994528 0.124253 0.505815
269 3 0.970503 0.0965091 0.464384
270 3 0.951499 0.153406 0.539865
271 2 0.151886 0.0993581 0.468904
272 3 0.232209 0.104497 0.479915
273 3 0.117799 0.0751543 0.429614
274 1 0.132846 0.164073 0.568633
275 2 0.068705 0.185583 0.619432
276 4 0.101863 0.169107 0.672242
277 4 0.982351 0.219522 0.607076
278 2 0.237513 0.176649 0.57763
279 4 0.265303 0.218369 0.627279
280 4 0.294813 0.145138 0.535978
281 1 0.842722 0.121156 0.762985
282 2 0.744529 0.125747 0.755816
283 3 0.720503 0.153491 0.714384
284 3 0.701499 0.0965939 0.789865
285 2 0.901886 0.150642 0.718904
286 3 0.982209 0.145503 0.729915
287 3 0.867799 0.174846 0.679614
288 1 0.882846 0.0859268 0.818633
289 2 0.818705 0.064417 0.869432
290 4 0.851863 0.0808931 0.922242
291 4 0.732351 0.0304784 0.857076
292 2 0.987513 0.0733505 0.82763
293 4 0.0153034 0.0316312 0.877279
294 4 0.0448127 0.104862 0.785978
295 1 0.907278 0.371156 0.987014
296 2 0.00546534 0.375747 0.994184
297 3 0.0294971 0.403491 0.0356159
298 3 0.0485009 0.346594 0.960135
299 2 0.848118 0.40064 0.0310933
300 3 0.767791 0.395503 0.0200854
301 3 0.882201 0.424846 0.070386
302 1 0.867158 0.335929 0.931371
303 2 0.931295 0.314417 0.880568
304 4 0.898137 0.330893 0.827757
305 4 0.0176502 0.280478 0.892924
306 2 0.762487 0.323351 0.922371
307 4 0.734696 0.281631 0.87272
308 4 0.705187 0.354862 0.964022
309 1 0.657278 0.378844 0.737015
310 2 0.755471 0.374253 0.744184
311 3 0.779497 0.346509 0.785616
312 3 0.798501 0.403406 0.710135
313 2 0.598114 0.349358 0.781096
314 3 0.517791 0.354497 0.770086
315 3 0.632201 0.325154 0.820386
316 1 0.617154 0.414073 0.681367
317 2 0.681295 0.435583 0.630568
318 4 0.648137 0.419107 0.577758
319 4 0.767649 0.469522 0.642924
320 2 0.512487 0.426649 0.67237
321 4 0.484697 0.468369 0.622721
322 4 0.455187 0.395138 0.714022
323 1 0.592722 0.128844 0.512985
324 2 0.494525 0.124253 0.505815
325 3 0.470502 0.0965091 0.464384
326 3 0.451499 0.153406 0.539865
327 2 0.651888 0.0993574 0.468903
328 3 0.732209 0.104497 0.479915
329 3 0.617799 0.0751542 0.429614
330 1 0.632847 0.164075 0.568635
331 2 0.568705 0.185583 0.619432
332 4 0.601863 0.169107 0.672242
333 4 0.482351 0.219522 0.607076
334 2 0.737513 0.176649 0.57763
335 4 0.765303 0.218369 0.627279
336 4 0.794813 0.145139 0.535979
337 1 0.342722 0.621156 0.762985
338 2 0.244523 0.625747 0.755815
339 3 0.220502 0.653491 0.714384
340 3 0.201499 0.596594 0.789865
341 2 0.401889 0.650643 0.718901
342 3 0.482209 0.645503 0.729915
343 3 0.367799 0.674846 0.679614
344 1 0.382849 0.585924 0.818637
345 2 0.318705 0.564417 0.869432
346 4 0.351863 0.580893 0.922242
347 4 0.232351 0.530479 0.857076
348 2 0.487512 0.573351 0.82763
349 4 0.515303 0.531632 0.877279
350 4 0.544812 0.604861 0.785979
351 1 0.407242 0.871119 0.986956
352 2 0.505239 0.875736 0.99417
353 3 0.529492 0.903488 0.0356133
354 3 0.548495 0.846593 0.960134
355 2 0.348255 0.900573 0.0309938
356 3 0.26779 0.895502 0.020084
357 3 0.382203 0.924844 0.0703827
358 1 0.367301 0.836066 0.931598
359 2 0.431283 0.814421 0.880571
360 4 0.398102 0.83091 0.827704
361 4 0.517737 0.780448 0.892943
362 2 0.2625 0.823355 0.922374
363 4 0.234669 0.781595 0.872676
364 4 0.205151 0.854888 0.964057
365 1 0.157278 0.878844 0.737015
366 2 0.255481 0.874252 0.744185
367 3 0.279499 0.846509 0.785616
368 3 0.298501 0.903406 0.710135
369 2 0.0981096 0.849355 0.7811
370 3 0.0177914 0.854497 0.770086
371 3 0.132202 0.825154 0.820386
372 1 0.11715 0.914077 0.681361
373 2 0.181295 0.935583 0.630568
374 4 0.148137 0.919107 0.577759
375 4 0.267648 0.969521 0.642924
376 2 0.0124879 0.926649 0.67237
377 4 0.984697 0.968368 0.622722
378 4 0.955188 0.895139 0.714021
379 1 0.0927221 0.628844 0.512985
380 2 0.994527 0.624253 0.505815
381 3 0.970503 0.596509 0.464384
382 3 0.951499 0.653406 0.539865
383 2 0.151887 0.599358 0.468903
384 3 0.232209 0.604497 0.479915
385 3 0.117799 0.575154 0.429614
386 1 0.132847 0.664074 0.568634
387 2 0.068705 0.685583 0.619432
388 4 0.101863 0.669107 0.672242
389 4 0.982351 0.719522 0.607076
390 2 0.237513 0.676649 0.57763
391 4 0.265303 0.718369 0.627279
392 4 0.294813 0.645138 0.535979
393 1 0.842722 0.621156 0.762986
394 2 0.74453 0.625747 0.755816
395 3 0.720503 0.653491 0.714384
396 3 0.701499 0.596594 0.789865
397 2 0.901885 0.650641 0.718905
398 3 0.982209 0.645503 0.729915
399 3 0.867799 0.674846 0.679614
400 1 0.882845 0.585927 0.818632
401 2 0.818705 0.564417 0.869432
402 4 0.851863 0.580893 0.922242
403 4 0.73235 0.530478 0.857076
404 2 0.987513 0.573351 0.82763
405 4 0.0153035 0.531631 0.877279
406 4 0.0448128 0.604862 0.785978
407 1 0.907278 0.871156 0.987014
408 2 0.0054639 0.875747 0.994184
409 3 0.029497 0.903491 0.0356158
410 3 0.0485009 0.846594 0.960135
411 2 0.848119 0.900639 0.0310926
412 3 0.767791 0.895503 0.0200854
413 3 0.882201 0.924846 0.070386
414 1 0.867158 0.83593 0.931372
415 2 0.931295 0.814417 0.880568
416 4 0.898137 0.830893 0.827757
417 4 0.0176504 0.780478 0.892924
418 2 0.762487 0.823351 0.922371
419 4 0.734696 0.781631 0.87272
420 4 0.705187 0.854862 0.964022
421 1 0.657278 0.878844 0.737015
422 2 0.755471 0.874253 0.744184
423 3 0.779497 0.846509 0.785616
424 3 0.798501 0.903406 0.710135
425 2 0.598114 0.849358 0.781096
426 3 0.517791 0.854497 0.770086
427 3 0.632201 0.825154 0.820386
428 1 0.617154 0.914073 0.681367
429 2 0.681295 0.935583 0.630568
430 4 0.648137 0.919107 0.577758
431 4 0.767649 0.969522 0.642924
432 2 0.512487 0.926649 0.67237
433 4 0.484697 0.968369 0.622721
434 4 0.455187 0.895138 0.714022
435 1 0.592722 0.628844 0.512985
436 2 0.494526 0.624253 0.505815
437 3 0.470503 0.596509 0.464384
438 3 0.451499 0.653406 0.539865
439 2 0.651887 0.599357 0.468903
440 3 0.732209 0.604497 0.479915
441 3 0.617799 0.575154 0.429614
442 1 0.632847 0.664074 0.568635
443 2 0.568705 0.685583 0.619432
444 4 0.601863 0.669107 0.672242
445 4 0.482351 0.719522 0.607076
446 2 0.737513 0.676649 0.57763
447 4 0.765303 0.718369 0.627279
448 4 0.794813 0.645139 0.535979
ITEM: TIMESTEP
1000
ITEM: NUMBER OF ATOMS
448
ITEM: BOX BOUNDS xy xz yz pp pp pp
-1.7947276436925454e+00 1.4104593112355129e+01 1.7181210019348159e-01
3.4878229015352646e-01 1.2776577935027218e+01 -1.7411466315308539e+00
4.2033703382746879e-01 2.2259573324472576e+01 -1.4943977481924572e-01
ITEM: ATOMS id type xs ys zs
1 1 0.344211 0.117918 0.246119
2 2 0.246635 0.127409 0.234365
3 3 0.214279 0.164016 0.184061
4 3 0.202742 0.10728 0.272557
5 2 0.402508 0.141315 0.205153
6 3 0.488687 0.130615 0.221702
7 3 0.367617 0.158854 0.1511
8 1 0.384694 0.0848207 0.309144
9 2 0.311333 0.0634506 0.356231
10 4 0.349723 0.0558576 0.409808
11 4 0.217039 0.0689869 0.342335
12 2 0.481224 0.0836232 0.323261
13 4 0.512392 0.0508486 0.383221
14 4 0.543967 0.104822 0.282306
15 1 0.402452 0.392168 0.501797
16 2 0.497974 0.397103 0.514094
17 3 0.533505 0.424018 0.566941
18 3 0.546381 0.378853 0.475358
19 2 0.340631 0.406291 0.544552
20 3 0.253827 0.389819 0.526194
21 3 0.373948 0.43018 0.591874
22 1 0.369302 0.357442 0.438171
23 2 0.434905 0.347926 0.388546
24 4 0.406642 0.333392 0.330759
25 4 0.526587 0.345464 0.405535
26 2 0.272267 0.325413 0.425326
27 4 0.243156 0.282411 0.369129
28 4 0.20904 0.336091 0.466832
29 1 0.166381 0.389232 0.254489
30 2 0.259197 0.409411 0.269829
31 3 0.301274 0.377742 0.315738
32 3 0.299999 0.457972 0.228956
33 2 0.107929 0.342836 0.293135
34 3 0.0266735 0.333063 0.267887
35 3 0.141106 0.30622 0.344126
36 1 0.124641 0.4201 0.192848
37 2 0.192689 0.43207 0.144864
38 4 0.163784 0.414595 0.0869757
39 4 0.282862 0.456791 0.15933
40 2 0.0236865 0.418246 0.172986
41 4 0.992967 0.47111 0.120707
42 4 0.965578 0.379601 0.210985
43 1 0.0960115 0.113652 0.000420492
44 2 0.996397 0.113512 0.990587
45 3 0.975572 0.0819762 0.949106
46 3 0.949772 0.158732 0.0332216
47 2 0.15032 0.0863061 0.956554
48 3 0.242226 0.0897991 0.972439
49 3 0.114686 0.0582898 0.904137
50 1 0.138643 0.151821 0.0613653
51 2 0.0754972 0.171804 0.112931
52 4 0.10535 0.18386 0.170568
53 4 0.98242 0.196494 0.0953027
54 2 0.237429 0.164579 0.0683971
55 4 0.27416 0.210447 0.122292
56 4 0.296655 0.139905 0.0248482
57 1 0.849893 0.121129 0.248102
58 2 0.751237 0.12918 0.239546
59 3 0.717761 0.15965 0.198548
60 3 0.710495 0.0604627 0.273567
61 2 0.904807 0.153716 0.206819
62 3 0.989506 0.139877 0.22567
63 3 0.870285 0.197975 0.156574
64 1 0.888455 0.073197 0.307811
65 2 0.824274 0.0630554 0.356942
66 4 0.851114 0.0796139 0.414767
67 4 0.731289 0.0469426 0.342193
68 2 0.99009 0.0606359 0.322838
69 4 0.0185845 0.0223117 0.379153
70 4 0.0483067 0.100786 0.284891
71 1 0.908805 0.381412 0.506202
72 2 0.00680784 0.387598 0.510187
73 3 0.0371782 0.416827 0.553956
74 3 0.0564229 0.356882 0.468734
75 2 0.856509 0.408508 0.552011
76 3 0.773674 0.394218 0.540745
77 3 0.904979 0.43796 0.602205
78 1 0.867368 0.340746 0.445548
79 2 0.929244 0.315303 0.395383
80 4 0.894814 0.302222 0.338497
81 4 0.0236379 0.306767 0.405698
82 2 0.764898 0.332417 0.434999
83 4 0.728308 0.305868 0.378644
84 4 0.712629 0.358234 0.480395
85 1 0.656145 0.381229 0.250002
86 2 0.751369 0.370207 0.264562
87 3 0.788697 0.333339 0.314411
88 3 0.799868 0.394035 0.226414
89 2 0.591459 0.363238 0.289981
90 3 0.506291 0.373533 0.269368
91 3 0.626495 0.333054 0.337381
92 1 0.619024 0.41504 0.187329
93 2 0.689373 0.434146 0.142215
94 4 0.660059 0.431633 0.084052
95 4 0.781274 0.441762 0.158882
96 2 0.51879 0.434196 0.170013
97 4 0.489946 0.489174 0.118316
98 4 0.454022 0.403225 0.206842
99 1 0.601938 0.124722 0.994234
100 2 0.504986 0.129023 0.98109
101 3 0.480606 0.0953744 0.92642
102 3 0.456308 0.15203 0.0139171
103 2 0.661643 0.0998418 0.952134
104 3 0.750042 0.130093 0.968134
105 3 0.616308 0.0736843 0.902459
106 1 0.639097 0.157719 0.057148
107 2 0.566916 0.168977 0.104307
108 4 0.597512 0.168826 0.162307
109 4 0.475468 0.177167 0.0871678
110 2 0.737875 0.173229 0.0717164
111 4 0.766325 0.210552 0.128861
112 4 0.801095 0.153746 0.0307948
113 1 0.339819 0.646589 0.238143
114 2 0.244932 0.652633 0.225977
115 3 0.212867 0.683096 0.183603
116 3 0.196242 0.625302 0.271882
117 2 0.40067 0.675377 0.197188
118 3 0.488387 0.662787 0.214983
119 3 0.362516 0.709177 0.146066
120 1 0.379873 0.606292 0.300101
121 2 0.31642 0.600026 0.351246
122 4 0.354404 0.59957 0.405603
123 4 0.220666 0.606943 0.339072
124 2 0.479272 0.586782 0.312163
125 4 0.507346 0.543565 0.368407
126 4 0.541895 0.623693 0.27458
127 1 0.402479 0.862103 0.509397
128 2 0.500298 0.881879 0.512049
129 3 0.526601 0.924251 0.559519
130 3 0.541458 0.85943 0.472233
131 2 0.350028 0.870445 0.558791
132 3 0.266503 0.8638 0.547374
133 3 0.388305 0.90733 0.61143
134 1 0.355652 0.838314 0.448919
135 2 0.415187 0.83647 0.395881
136 4 0.368374 0.829959 0.342107
137 4 0.509198 0.831888 0.400229
138 2 0.250921 0.823287 0.439341
139 4 0.214474 0.801345 0.384834
140 4 0.200711 0.834779 0.487097
141 1 0.132716 0.878927 0.257152
142 2 0.228434 0.884401 0.271223
143 3 0.253954 0.848116 0.314094
144 3 0.271613 0.947198 0.236001
145 2 0.0720933 0.829847 0.292393
146 3 0.989626 0.827755 0.262263
147 3 0.103098 0.798817 0.336054
148 1 0.0983068 0.929117 0.197769
149 2 0.164922 0.935528 0.148557
150 4 0.141103 0.922909 0.0908465
151 4 0.257096 0.9488 0.16624
152 2 0.997919 0.941334 0.177821
153 4 0.968457 0.00166992 0.128689
154 4 0.938045 0.876689 0.203821
155 1 0.0911694 0.616387 0.987905
156 2 0.994779 0.612214 0.977386
157 3 0.965627 0.596218 0.931347
158 3 0.945843 0.63099 0.0194943
159 2 0.147583 0.589414 0.943141
160 3 0.232671 0.606595 0.958033
161 3 0.119818 0.548453 0.889497
162 1 0.127772 0.65445 0.0494952
163 2 0.0557557 0.677934 0.0979848
164 4 0.0914419 0.6897 0.153524
165 4 0.963116 0.682283 0.0867153
166 2 0.224771 0.672942 0.0616449
167 4 0.258285 0.724086 0.11385
168 4 0.283851 0.644066 0.0199063
169 1 0.835365 0.624353 0.240324
170 2 0.739465 0.621431 0.229463
171 3 0.708428 0.651909 0.175901
172 3 0.693493 0.580743 0.26706
173 2 0.888167 0.670782 0.200655
174 3 0.977226 0.664261 0.220489
175 3 0.862029 0.712478 0.152112
176 1 0.882764 0.586801 0.300359
177 2 0.815931 0.566224 0.350412
178 4 0.8472 0.574211 0.408655
179 4 0.725991 0.54995 0.335891
180 2 0.981278 0.582654 0.313542
181 4 0.0171038 0.543576 0.368593
182 4 0.0402407 0.61857 0.272641
183 1 0.899351 0.877409 0.502298
184 2 0.994134 0.872252 0.518666
185 3 0.0321998 0.906277 0.570014
186 3 0.040004 0.840833 0.480294
187 2 0.837666 0.921889 0.540387
188 3 0.756109 0.94054 0.515285
189 3 0.867993 0.945583 0.584285
190 1 0.85943 0.840067 0.441765
191 2 0.922728 0.810478 0.39409
192 4 0.88892 0.800124 0.336271
193 4 0.0144259 0.805951 0.411239
194 2 0.755634 0.839333 0.427836
195 4 0.717822 0.778174 0.381862
196 4 0.69578 0.895739 0.459061
197 1 0.644657 0.871031 0.261347
198 2 0.739975 0.881069 0.274986
199 3 0.783 0.84875 0.316842
200 3 0.787007 0.912758 0.233143
201 2 0.584154 0.838467 0.301044
202 3 0.498307 0.833365 0.277188
203 3 0.617023 0.819609 0.355319
204 1 0.604634 0.903474 0.198509
205 2 0.669819 0.926635 0.149366
206 4 0.641153 0.934866 0.0910191
207 4 0.761006 0.947914 0.166146
208 2 0.505883 0.916447 0.185481
209 4 0.472522 0.971048 0.131592
210 4 0.441802 0.891884 0.22367
211 1 0.591479 0.619382 0.992855
212 2 0.497029 0.629668 0.980189
213 3 0.473811 0.591528 0.932262
214 3 0.447724 0.648262 0.0229329
215 2 0.650495 0.582377 0.952023
216 3 0.73202 0.572778 0.973368
217 3 0.61081 0.554395 0.897777
218 1 0.63291 0.650894 0.0551085
219 2 0.569401 0.67614 0.102454
220 4 0.603691 0.68639 0.160169
221 4 0.474961 0.681004 0.0908345
222 2 0.737842 0.659061 0.0669165
223 4 0.762414 0.726802 0.113258
224 4 0.796276 0.614874 0.0310325
225 1 0.344313 0.106227 0.745609
226 2 0.247382 0.101383 0.73677
227 3 0.209975 0.132318 0.691814
228 3 0.201377 0.0807591 0.776854
229 2 0.400503 0.135421 0.702715
230 3 0.483326 0.129222 0.723788
231 3 0.36416 0.157729 0.647976
232 1 0.389588 0.0721398 0.807657
233 2 0.322278 0.0476864 0.858032
234 4 0.359902 0.0355037 0.912314
235 4 0.230237 0.0378814 0.843904
236 2 0.485136 0.0549583 0.820224
237 4 0.520373 0.0171691 0.880151
238 4 0.545891 0.0807491 0.779886
239 1 0.420764 0.374225 0.00444984
240 2 0.51331 0.363766 0.0220254
241 3 0.551062 0.389197 0.0658116
242 3 0.557994 0.329431 0.976717
243 2 0.360527 0.417675 0.0431758
244 3 0.272348 0.419103 0.0257143
245 3 0.391803 0.450901 0.0985297
246 1 0.382791 0.332372 0.942391
247 2 0.446853 0.311208 0.893974
248 4 0.415186 0.302316 0.835962
249 4 0.541898 0.304472 0.909323
250 2 0.281244 0.324317 0.927787
251 4 0.24677 0.268874 0.877643
252 4 0.223918 0.371281 0.96525
253 1 0.173061 0.366746 0.753595
254 2 0.272778 0.354203 0.760964
255 3 0.310304 0.325043 0.810607
256 3 0.31457 0.389395 0.725201
257 2 0.114593 0.346299 0.797145
258 3 0.0273599 0.366697 0.780749
259 3 0.152512 0.311913 0.848737
260 1 0.129699 0.404885 0.694037
261 2 0.196994 0.421809 0.641278
262 4 0.154909 0.428489 0.588404
263 4 0.289498 0.426248 0.654076
264 2 0.0331863 0.427799 0.683103
265 4 0.00389365 0.470427 0.625613
266 4 0.970064 0.411665 0.723547
267 1 0.0908811 0.120264 0.498023
268 2 0.994657 0.144622 0.486945
269 3 0.952689 0.11652 0.435297
270 3 0.963435 0.191206 0.520045
271 2 0.146694 0.0728858 0.460135
272 3 0.230405 0.0568676 0.485482
273 3 0.12129 0.0492424 0.404716
274 1 0.135424 0.147413 0.560288
275 2 0.0757803 0.179921 0.61
276 4 0.105681 0.182134 0.667818
277 4 0.986072 0.212018 0.594141
278 2 0.23744 0.154241 0.573162
279 4 0.269564 0.205713 0.624853
280 4 0.296567 0.113172 0.533972
281 1 0.846787 0.124215 0.744536
282 2 0.752839 0.122479 0.735009
283 3 0.704807 0.151125 0.684943
284 3 0.708158 0.0951705 0.774082
285 2 0.906012 0.153037 0.703405
286 3 0.991299 0.156283 0.72769
287 3 0.87165 0.189589 0.650173
288 1 0.890495 0.0873787 0.807095
289 2 0.825115 0.0719947 0.857491
290 4 0.860439 0.0588955 0.913702
291 4 0.733494 0.061527 0.846194
292 2 0.988105 0.0746085 0.822247
293 4 0.0149712 0.0255792 0.876594
294 4 0.0488525 0.111302 0.783598
295 1 0.91341 0.359887 0.00433175
296 2 0.0078399 0.352733 0.0186622
297 3 0.0600044 0.381138 0.0671306
298 3 0.0489664 0.304394 0.982374
299 2 0.854062 0.40134 0.0423847
300 3 0.768053 0.399762 0.0232497
301 3 0.896389 0.430204 0.0933191
302 1 0.877459 0.3318 0.939207
303 2 0.944589 0.311452 0.891197
304 4 0.914943 0.318799 0.83269
305 4 0.0329422 0.287067 0.910325
306 2 0.776667 0.320608 0.925844
307 4 0.749995 0.27753 0.869359
308 4 0.715908 0.361479 0.961337
309 1 0.665657 0.379243 0.753085
310 2 0.759847 0.382647 0.762218
311 3 0.812358 0.355971 0.810425
312 3 0.801328 0.416706 0.714587
313 2 0.614909 0.345808 0.797796
314 3 0.528166 0.345605 0.785365
315 3 0.647322 0.315057 0.851497
316 1 0.619694 0.417561 0.691598
317 2 0.675877 0.442369 0.64172
318 4 0.639716 0.45307 0.585554
319 4 0.771062 0.459884 0.653362
320 2 0.516778 0.412898 0.68415
321 4 0.474083 0.453577 0.632775
322 4 0.464445 0.375229 0.726703
323 1 0.591399 0.150796 0.501419
324 2 0.495724 0.163082 0.487927
325 3 0.474828 0.11992 0.444848
326 3 0.450299 0.203043 0.530143
327 2 0.647069 0.112286 0.45864
328 3 0.73082 0.103066 0.478451
329 3 0.610693 0.0967241 0.402878
330 1 0.634116 0.175483 0.563904
331 2 0.570354 0.187364 0.612489
332 4 0.600998 0.185264 0.671559
333 4 0.477635 0.205299 0.599672
334 2 0.737967 0.185324 0.576292
335 4 0.775152 0.23157 0.62964
336 4 0.792481 0.15827 0.532628
337 1 0.3506 0.620767 0.739525
338 2 0.255529 0.599717 0.725976
339 3 0.198341 0.630714 0.681294
340 3 0.230252 0.555771 0.764633
341 2 0.404865 0.674984 0.702902
342 3 0.494269 0.673849 0.717604
343 3 0.361496 0.705963 0.650511
344 1 0.393084 0.585522 0.801142
345 2 0.332882 0.561561 0.852661
346 4 0.366325 0.56077 0.910031
347 4 0.244017 0.534337 0.837729
348 2 0.494191 0.578463 0.809746
349 4 0.526598 0.51676 0.859764
350 4 0.550855 0.625291 0.77302
351 1 0.398279 0.867602 0.0110446
352 2 0.491678 0.858561 0.0256609
353 3 0.534733 0.904274 0.0722798
354 3 0.539145 0.825351 0.983629
355 2 0.341546 0.916187 0.0513834
356 3 0.267918 0.91722 0.0302411
357 3 0.376694 0.934797 0.109223
358 1 0.359603 0.826277 0.949652
359 2 0.424013 0.810106 0.900507
360 4 0.39207 0.807879 0.84245
361 4 0.517351 0.80846 0.913595
362 2 0.25781 0.826919 0.932246
363 4 0.223674 0.762199 0.886778
364 4 0.207359 0.888642 0.966659
365 1 0.150694 0.866243 0.758185
366 2 0.246491 0.864401 0.771669
367 3 0.281031 0.825434 0.815908
368 3 0.291878 0.89498 0.728995
369 2 0.0910744 0.82753 0.799385
370 3 0.0156901 0.848156 0.785441
371 3 0.125505 0.80096 0.852824
372 1 0.113346 0.911219 0.699728
373 2 0.173575 0.927785 0.649568
374 4 0.136874 0.924927 0.591551
375 4 0.268036 0.92748 0.662143
376 2 0.00586838 0.92971 0.68964
377 4 0.975584 0.976525 0.637915
378 4 0.949406 0.899769 0.729367
379 1 0.0853267 0.632849 0.495014
380 2 0.991261 0.639293 0.482208
381 3 0.950941 0.60867 0.431267
382 3 0.943197 0.66448 0.523492
383 2 0.145385 0.597163 0.452285
384 3 0.229964 0.591162 0.469895
385 3 0.113354 0.582077 0.395916
386 1 0.124447 0.653604 0.558224
387 2 0.0610035 0.67383 0.606994
388 4 0.0981147 0.679179 0.664467
389 4 0.968561 0.671535 0.594776
390 2 0.23011 0.666864 0.57009
391 4 0.258758 0.714854 0.623238
392 4 0.286115 0.62725 0.531242
393 1 0.850005 0.620026 0.746807
394 2 0.754247 0.624965 0.730894
395 3 0.714467 0.658987 0.681119
396 3 0.716613 0.592226 0.766071
397 2 0.90746 0.653909 0.704324
398 3 0.995904 0.63974 0.722519
399 3 0.874166 0.687561 0.662298
400 1 0.889237 0.579224 0.807246
401 2 0.820834 0.561312 0.855412
402 4 0.853966 0.550264 0.912031
403 4 0.729857 0.554704 0.84003
404 2 0.988517 0.556518 0.817648
405 4 0.0216207 0.502619 0.869248
406 4 0.0493626 0.592831 0.779363
407 1 0.902285 0.870711 0.00872225
408 2 0.998394 0.866141 0.021538
409 3 0.032136 0.892368 0.0712771
410 3 0.043666 0.808204 0.983073
411 2 0.848398 0.917957 0.0485113
412 3 0.762337 0.915072 0.0271605
413 3 0.874647 0.96512 0.102759
414 1 0.861157 0.832249 0.947587
415 2 0.928306 0.809631 0.899641
416 4 0.895358 0.813148 0.841774
417 4 0.0201556 0.790394 0.914443
418 2 0.761229 0.820172 0.932638
419 4 0.730549 0.771796 0.880159
420 4 0.704412 0.865829 0.970965
421 1 0.653852 0.882378 0.757598
422 2 0.751008 0.889397 0.77356
423 3 0.796665 0.865531 0.825285
424 3 0.783281 0.919187 0.730217
425 2 0.599469 0.83937 0.799296
426 3 0.514817 0.844524 0.779387
427 3 0.634838 0.818858 0.852573
428 1 0.614797 0.915293 0.696561
429 2 0.674045 0.934987 0.642687
430 4 0.637928 0.942963 0.586543
431 4 0.767028 0.935326 0.656471
432 2 0.512692 0.925366 0.684294
433 4 0.477818 0.967312 0.629632
434 4 0.454438 0.886829 0.721718
435 1 0.59122 0.646585 0.488957
436 2 0.49606 0.649705 0.481313
437 3 0.471559 0.620395 0.435251
438 3 0.446732 0.675102 0.525505
439 2 0.64829 0.613127 0.446163
440 3 0.732932 0.617204 0.457953
441 3 0.603645 0.583374 0.39502
442 1 0.631273 0.681815 0.552256
443 2 0.573335 0.696198 0.602165
444 4 0.61202 0.701765 0.660213
445 4 0.47849 0.699854 0.59262
446 2 0.735382 0.689453 0.563287