LAMMPS data file via write_data, version 15 Apr 2020, timestep = 80000

448 atoms
4 atom types

-1.7853003822967395e-02 1.3897053003822982e+01 xlo xhi
1.1087712918876438e+00 1.2166028708112581e+01 ylo yhi
-2.4835837668540783e-01 2.2928268734985764e+01 zlo zhi
2.2686278647358726e+00 -3.5341223433099245e-01 -1.8752954354216107e+00 xy xz yz

Masses

1 12.0107
2 14.0067
3 1.00794
4 15.9994

Atoms # full

1 1 1 4.9034864622031576e-01 4.6483058630022223e+00 2.1336754944316203e+00 5.3970352279352172e+00 0 0 0
2 1 2 -6.0563151627588352e-01 3.3491201940334778e+00 2.1604251720305752e+00 4.9973674437235580e+00 0 0 0
3 1 3 4.4739443176300547e-01 3.1874548948888002e+00 2.1590861592894877e+00 3.8771421765733232e+00 0 0 0
4 1 3 4.1432084184959833e-01 2.5173197408724572e+00 1.9451795012747912e+00 5.8704374173425578e+00 0 0 0
5 1 2 -5.2315688339561472e-01 5.6659310808009131e+00 2.2822726189121263e+00 4.4915346255739834e+00 0 0 0
6 1 3 4.0843584616889866e-01 6.7054501968093900e+00 2.0992642956879610e+00 5.0413568735274437e+00 0 0 0
7 1 3 4.4464538952559080e-01 5.4778656494521050e+00 2.4125429055517134e+00 3.2911140016061893e+00 0 0 0
8 1 1 -1.1729490353120663e-01 5.0098462473928560e+00 1.9549944705472129e+00 6.8108758563887797e+00 0 0 0
9 1 2 4.3428766670679514e-01 3.8873491587725741e+00 1.8260933363998664e+00 7.8044139553289611e+00 0 0 0
10 1 4 -3.7446403113691762e-01 4.2743457355745313e+00 1.6927147525220518e+00 9.0097616542193499e+00 0 0 0
11 1 4 -4.5527791605825796e-01 2.6290250104334438e+00 1.8699522000193758e+00 7.4303384621514192e+00 0 0 0
12 1 2 4.4260684241483012e-01 6.3587318037113594e+00 1.9979924097049140e+00 7.3015056717225502e+00 0 0 0
13 1 4 -4.4990378378105511e-01 6.5001941198091746e+00 1.9850559960266294e+00 8.6472635942749996e+00 0 0 0
14 1 4 -4.7194360297323745e-01 7.3483688526377948e+00 2.0397597391267901e+00 6.4635056587258530e+00 0 0 0
15 1 1 4.8600958055812293e-01 5.6214917937284143e+00 4.1717820340977880e+00 1.2017811116380775e+01 0 0 0
16 1 2 -5.8241709735789182e-01 6.9169564164045712e+00 4.3915299776039465e+00 1.2410755654518178e+01 0 0 0
17 1 3 4.6554336102891686e-01 7.1400355422605504e+00 4.0563580279667484e+00 1.3398442629796225e+01 0 0 0
18 1 3 3.9892004468992215e-01 7.6832625567301580e+00 4.5401832565334104e+00 1.1379345106529371e+01 0 0 0
19 1 2 -5.1637831120853761e-01 4.6452904477590851e+00 3.8886241672865949e+00 1.2838057954782501e+01 0 0 0
20 1 3 3.8898102363571208e-01 3.4666931871373752e+00 3.6700419775016453e+00 1.2287756401277758e+01 0 0 0
21 1 3 4.3867737175036681e-01 4.7909613598377101e+00 3.6660735475642583e+00 1.4087101339655559e+01 0 0 0
22 1 1 -1.3438860804384678e-01 5.2725831157865954e+00 4.3513713817140696e+00 1.0563657690011421e+01 0 0 0
23 1 2 4.3130446162625596e-01 6.2923954939882059e+00 4.4997854559006045e+00 9.5229062736442813e+00 0 0 0
24 1 4 -3.9247060379185261e-01 5.8975521265568034e+00 4.5853247527002088e+00 8.3227297890198066e+00 0 0 0
25 1 4 -4.6659611145541724e-01 7.5863147464189424e+00 4.6480859120439391e+00 9.8702630857967186e+00 0 0 0
26 1 2 4.1706041269850652e-01 3.8754067560825707e+00 4.4253201654168990e+00 1.0120762127996139e+01 0 0 0
27 1 4 -4.5415169161268126e-01 3.6361070309035655e+00 4.6740459420761162e+00 8.8361452325952943e+00 0 0 0
28 1 4 -4.7668424885664445e-01 2.8957665853121228e+00 4.1361732566796947e+00 1.0982508141652898e+01 0 0 0
29 1 1 5.2009792108620512e-01 2.4076515432779617e+00 4.8183404128460783e+00 6.1982382456380041e+00 0 0 0
30 1 2 -5.8567255550444297e-01 3.7290489279797860e+00 5.0405684059964830e+00 6.2406267249386840e+00 0 0 0
31 1 3 4.5720871273806862e-01 4.3503767276656227e+00 5.0257092850316436e+00 7.1011869214327978e+00 0 0 0
32 1 3 4.1427126834253369e-01 4.4241980101834715e+00 5.2077305307123547e+00 5.1272795464511463e+00 0 0 0
33 1 2 -5.3769983581162017e-01 1.6598917577527619e+00 4.5952078376317953e+00 7.2798832138963183e+00 0 0 0
34 1 3 4.2197304533021646e-01 1.4402472965965131e+01 4.3366418147738273e+00 6.9248808382349365e+00 -1 0 0
35 1 3 4.4928997283044952e-01 2.1640135827091918e+00 4.4930176644733546e+00 8.3734399631329506e+00 0 0 0
36 1 1 -1.4455712259204462e-01 1.7634704295314798e+00 4.8939337172012793e+00 4.8623489802551765e+00 0 0 0
37 1 2 4.1690591735471128e-01 2.5802414121859609e+00 4.9394418405682954e+00 3.6543257348631406e+00 0 0 0
38 1 4 -4.1137161010257595e-01 2.0618009728302256e+00 5.1367108287300978e+00 2.5717893650993298e+00 0 0 0
39 1 4 -4.8563981857054139e-01 4.0454605946012476e+00 4.8696744763552378e+00 3.7584979344051304e+00 0 0 0
40 1 2 4.0794032003550329e-01 1.4234720958199725e+01 4.9028745132410805e+00 4.7086138176935641e+00 -1 0 0
41 1 4 -4.4905993078260720e-01 1.3612002657065529e+01 5.1082796890388344e+00 3.5811881864477115e+00 0 0 0
42 1 4 -4.5469931585484280e-01 1.3459834211772042e+01 4.6628853899699907e+00 5.7685571354284848e+00 0 0 0
43 1 1 5.2429865581856616e-01 6.3049761447724639e-01 6.9025324516689213e-01 2.2800968254123362e+01 0 0 -1
44 1 2 -6.0658884495593046e-01 1.3197632008191700e+01 6.1849004409496366e-01 2.2735645926209308e+01 0 0 -1
45 1 3 4.4801645657566613e-01 1.2751561820373105e+01 6.4686166008172474e-01 2.1758423140273152e+01 0 0 0
46 1 3 4.2116987875598455e-01 1.2855240293830088e+01 2.1783034973892317e+00 5.7773745152748690e-01 0 0 0
47 1 2 -4.9987520455369533e-01 1.3680045478213543e+00 8.9902816064500013e-01 2.1712084845894722e+01 0 0 0
48 1 3 4.1766118118147122e-01 2.5530862704205863e+00 9.6651763997294093e-01 2.1936607507251267e+01 0 0 0
49 1 3 4.2604957684337430e-01 9.6983789869678816e-01 1.2132737458283764e+00 2.0491711178403634e+01 0 0 0
50 1 1 -1.3261172050886438e-01 1.6564791009177702e+00 2.5107836849599892e+00 9.5909654963001412e-01 0 0 0
51 1 2 4.6524881453825140e-01 8.2978685415814113e-01 2.5073382383088010e+00 2.1195540885598039e+00 0 0 0
52 1 4 -4.5107189086361332e-01 1.3419892330446770e+00 2.2615606155994743e+00 3.2068433941828753e+00 0 0 0
53 1 4 -5.4020515292411408e-01 1.3344159178108224e+01 2.6295450091712915e+00 1.9586625797688058e+00 0 0 0
54 1 2 4.4754672519135152e-01 3.1333869831240824e+00 2.5022784418766921e+00 1.1067504781499096e+00 0 0 0
55 1 4 -4.4797523094422853e-01 3.6845314792614929e+00 2.4280523997311434e+00 2.2621077446735018e+00 0 0 0
56 1 4 -4.8780223923835447e-01 3.8715972925951245e+00 2.5600283221385309e+00 1.1162503381570044e-02 0 0 0
57 1 1 5.0121212817275373e-01 1.1597439950019833e+01 2.1229996861246434e+00 5.3103560567857180e+00 0 0 0
58 1 2 -6.1615081567023011e-01 1.0275866770936222e+01 2.1721278049669142e+00 4.9645449751770947e+00 0 0 0
59 1 3 4.6582631126110674e-01 1.0173291299390447e+01 2.1509401478823755e+00 3.8711166530063608e+00 0 0 0
60 1 3 4.2254674356154387e-01 9.4315256294447334e+00 2.3058825582490412e+00 5.8426799128329394e+00 0 0 0
61 1 2 -5.0212972200215744e-01 1.2627017856416265e+01 2.1843146721644118e+00 4.4615817782181555e+00 0 0 0
62 1 3 3.9866191209879881e-01 1.3815057395707258e+01 2.1672700705495886e+00 4.9365016401972213e+00 0 0 0
63 1 3 4.2488905595520571e-01 1.2513511770320880e+01 2.2084825352911448e+00 3.1908121185319414e+00 0 0 0
64 1 1 -1.1558500418175582e-01 1.1916491554104704e+01 2.0412777705068681e+00 6.7720772426131486e+00 0 0 0
65 1 2 4.2538341610919811e-01 1.0811742630912619e+01 1.8668325395090659e+00 7.7557336140655337e+00 0 0 0
66 1 4 -3.7769510629704656e-01 1.1130966204593619e+01 1.6428800616146368e+00 8.9680786458008459e+00 0 0 0
67 1 4 -4.3002059092571593e-01 9.5519736370724004e+00 2.0235977347629635e+00 7.3959331130247605e+00 0 0 0
68 1 2 4.4547838306253629e-01 1.3260146023422704e+01 2.0410215568889258e+00 7.2464903977057746e+00 0 0 0
69 1 4 -4.6900028066756361e-01 1.3476449312478659e+01 2.0077327704337837e+00 8.5605356635949246e+00 -1 0 0
70 1 4 -4.9353675003643904e-01 3.5167346829416807e-01 2.0725171432218277e+00 6.3824017571519125e+00 0 0 0
71 1 1 4.9343551311885236e-01 1.2550565114595447e+01 4.1382980069896789e+00 1.1911297542501789e+01 0 0 0
72 1 2 -6.3295058325692966e-01 1.3820475669904617e+01 4.4153974577372708e+00 1.2335348247995556e+01 -1 0 0
73 1 3 4.6178962874776608e-01 1.4090793725313857e+01 4.3796001921757997e+00 1.3402129205481581e+01 -1 0 0
74 1 3 4.1401830797009881e-01 1.4570999121381407e+01 4.4496742984679942e+00 1.1436574846235141e+01 -1 0 0
75 1 2 -5.2076818101410338e-01 1.1601793647930950e+01 3.8183122761479931e+00 1.2780895229517435e+01 0 0 0
76 1 3 3.9988140840953229e-01 1.0483537070859592e+01 3.6417919885119288e+00 1.2244275605486134e+01 0 0 0
77 1 3 4.3591575849776298e-01 1.1770828884164096e+01 3.6240177125706916e+00 1.4058319045071864e+01 0 0 0
78 1 1 -1.3848013861002534e-01 1.2225220690329138e+01 4.3056877399007867e+00 1.0484502698172605e+01 0 0 0
79 1 2 4.4178098813747207e-01 1.3335874713108819e+01 4.4444586533414681e+00 9.4614228738758666e+00 0 0 0
80 1 4 -3.7421973236524625e-01 1.2868399427355456e+01 4.6195715181991268e+00 8.2756277369920390e+00 0 0 0
81 1 4 -4.5631170894832501e-01 1.4580088273673356e+01 4.5486260578551381e+00 9.8515765531837847e+00 -1 0 0
82 1 2 4.2499022483697146e-01 1.0871423091489811e+01 4.3171567413722265e+00 1.0034198454644967e+01 0 0 0
83 1 4 -4.6366309674435285e-01 1.0566837612279903e+01 4.6917752144374054e+00 8.7655289352650456e+00 0 0 0
84 1 4 -4.6524055133951386e-01 9.9026959210691388e+00 3.9609676317540696e+00 1.0877195810043505e+01 0 0 0
85 1 1 4.8666933445103583e-01 9.2790635123892180e+00 4.8665494747694940e+00 6.0923522333309235e+00 0 0 0
86 1 2 -6.0270321286387452e-01 1.0669900139592224e+01 5.0508710480546259e+00 6.2238671934358116e+00 0 0 0
87 1 3 4.6803357448434108e-01 1.1210453306832408e+01 5.0877271135483726e+00 7.1406830387326155e+00 0 0 0
88 1 3 4.1896702167077399e-01 1.1267929294367180e+01 5.0098702539816822e+00 5.1471249739065152e+00 0 0 0
89 1 2 -5.5007564932628972e-01 8.5512679471847655e+00 4.6678769518900172e+00 7.1848296575696731e+00 0 0 0
90 1 3 4.3567093020091602e-01 7.4120638187733192e+00 4.6573153010872854e+00 6.9719161702529293e+00 0 0 0
91 1 3 4.3813991094328419e-01 9.0861509123306430e+00 4.6112139908770278e+00 8.3344238242047837e+00 0 0 0
92 1 1 -1.3575249195626340e-01 8.7741168416046786e+00 4.9323263792359668e+00 4.6985762468108971e+00 0 0 0
93 1 2 4.1817646156949706e-01 9.6339161679062588e+00 4.9143822732368942e+00 3.5191929528513053e+00 0 0 0
94 1 4 -4.0343548266223850e-01 9.1247018849800909e+00 4.9475295495812563e+00 2.3969285360474228e+00 0 0 0
95 1 4 -4.9564199313907609e-01 1.1052695607171946e+01 4.6090867737008914e+00 3.6701740090878072e+00 0 0 0
96 1 2 4.5652874544641642e-01 7.2886410750319772e+00 4.9506084792143028e+00 4.5257293977451436e+00 0 0 0
97 1 4 -4.5840214996365841e-01 6.6898374095724638e+00 5.2119171618271096e+00 3.4233777447799536e+00 0 0 0
98 1 4 -4.8574551686587203e-01 6.5956485401506226e+00 4.7304718726117505e+00 5.6293195408075958e+00 0 0 0
99 1 1 5.2139459770611607e-01 7.5591810159053745e+00 6.9125013724431317e-01 2.2895435136936385e+01 0 0 -1
100 1 2 -6.2605728690987028e-01 6.2334596488718290e+00 8.6460030717080882e-01 2.2785392693593742e+01 0 0 -1
101 1 3 4.5301944377777248e-01 5.7788913767514867e+00 9.6610966760716055e-01 2.1845595706534958e+01 0 0 0
102 1 3 4.2343611754191607e-01 5.8924541269086621e+00 2.5642847359751366e+00 7.1568697471700482e-01 0 0 0
103 1 2 -5.6185214371243108e-01 8.3072493965900289e+00 6.0455918570533584e-01 2.1792084522347054e+01 0 0 0
104 1 3 4.4010544771820798e-01 9.4048298058598228e+00 5.8006909616232272e-01 2.1966640809106174e+01 0 0 0
105 1 3 4.3177389875674055e-01 7.8800913651075497e+00 9.9395823131667749e-01 2.0620395232914923e+01 0 0 0
106 1 1 -1.3541887790622678e-01 8.6058039836212785e+00 2.4397508372394485e+00 1.0674692091593645e+00 0 0 0
107 1 2 4.4749138568320601e-01 7.8181144120087085e+00 2.6127748050306279e+00 2.2039084592377343e+00 0 0 0
108 1 4 -4.2739424419142730e-01 8.3217140887135983e+00 2.4183016588582040e+00 3.3017704087827968e+00 0 0 0
109 1 4 -4.9156414239549384e-01 6.3715382194247372e+00 2.8244989746237654e+00 2.0839681949016011e+00 0 0 0
110 1 2 4.5591047827718334e-01 1.0093005810847970e+01 2.2276559934960511e+00 1.1522676775905532e+00 0 0 0
111 1 4 -4.7423011196434345e-01 1.0630234917469688e+01 2.0990765985181685e+00 2.3100204260791051e+00 0 0 0
112 1 4 -5.1231906827444285e-01 1.0735600602713935e+01 2.1821463161304804e+00 1.6945974925309581e-02 0 0 0
113 1 1 4.8536837927306870e-01 7.0147469580418571e+00 7.7267265891108519e+00 4.8928101203345351e+00 0 0 0
114 1 2 -5.8846672468210826e-01 5.7240899113271944e+00 7.6970367138179014e+00 4.5520540014347066e+00 0 0 0
115 1 3 4.4267379010080654e-01 5.5036743786752513e+00 7.9243235861371071e+00 3.3983423867009108e+00 0 0 0
116 1 3 4.0814505150721325e-01 5.0211319170427284e+00 7.5103322327357560e+00 5.5557379277298420e+00 0 0 0
117 1 2 -6.0011324475118255e-01 8.0086554205586022e+00 7.8838710830536245e+00 3.9810675995358684e+00 0 0 0
118 1 3 4.0285832556869566e-01 9.1705639252595592e+00 8.0568763126918270e+00 4.5251367675940299e+00 0 0 0
119 1 3 4.5841917047027608e-01 7.7483298791940021e+00 8.0274797181335877e+00 2.9799144842412697e+00 0 0 0
120 1 1 -1.4342561203326065e-01 7.4175921461372392e+00 7.6658531559324814e+00 6.3304001759683670e+00 0 0 0
121 1 2 4.2730733018576789e-01 6.3147551497355048e+00 7.4008159703680958e+00 7.4003112566880818e+00 0 0 0
122 1 4 -3.8796756667019244e-01 6.8085404592140044e+00 7.1665414005453254e+00 8.5259356714110783e+00 0 0 0
123 1 4 -4.9375586301378210e-01 5.0268680744676244e+00 7.3862139499504798e+00 7.1105234894740228e+00 0 0 0
124 1 2 4.1479044844664792e-01 8.7119002302425130e+00 7.6997168819931039e+00 6.7637634508366311e+00 0 0 0
125 1 4 -4.7572554262111189e-01 8.9599007974576175e+00 7.6216242030984276e+00 8.1309083811604967e+00 0 0 0
126 1 4 -5.0930636681289454e-01 9.7128709393763604e+00 7.8487601840889800e+00 5.8965897813655275e+00 0 0 0
127 1 1 4.8477651779344799e-01 7.7633260044869017e+00 9.7109172303069737e+00 1.1564687408746245e+01 0 0 0
128 1 2 -5.7581375440538973e-01 9.1436344182617013e+00 9.6116493076625709e+00 1.1694942655358021e+01 0 0 0
129 1 3 4.4746939298646227e-01 9.6340888874953503e+00 9.4961896680905138e+00 1.2656552321932256e+01 0 0 0
130 1 3 4.1809606923784892e-01 9.8028130564399873e+00 9.4570781312294834e+00 1.0601989673685953e+01 0 0 0
131 1 2 -5.3980394823560196e-01 6.9756357336640971e+00 9.6662894518209335e+00 1.2674465454178973e+01 0 0 0
132 1 3 4.3446467201807482e-01 5.9395447100050722e+00 9.4793063530082211e+00 1.2365428844852175e+01 0 0 0
133 1 3 4.3997929192572077e-01 7.3891406475280741e+00 9.5854366414106025e+00 1.3909155039096131e+01 0 0 0
134 1 1 -9.7347395155764627e-02 7.1633810307379102e+00 9.8180409083674309e+00 1.0257932218174208e+01 0 0 0
135 1 2 4.4313824601075391e-01 8.0277895197121651e+00 9.9353646248775345e+00 9.1356698725128300e+00 0 0 0
136 1 4 -4.1485014131678194e-01 7.4002708439764282e+00 1.0120687907494036e+01 8.0726582294962821e+00 0 0 0
137 1 4 -5.1649224280226680e-01 9.4116803980858066e+00 1.0092102158378294e+01 9.3073558155005625e+00 0 0 0
138 1 2 4.8440438918445505e-01 5.5803324613107934e+00 9.7093918386071749e+00 1.0062307126383208e+01 0 0 0
139 1 4 -4.4053761825914101e-01 5.1921005540312031e+00 9.8343642241597617e+00 8.8492683364891409e+00 0 0 0
140 1 4 -4.9331609530664278e-01 4.8804833235682699e+00 9.7164944172213765e+00 1.1113946885085632e+01 0 0 0
141 1 1 5.3844460040391517e-01 4.1643289469075127e+00 1.0443919706889943e+01 5.8479249098495147e+00 0 0 0
142 1 2 -6.7441202579411652e-01 5.4223784530580685e+00 1.0249490321675845e+01 6.2107875324291211e+00 0 0 0
143 1 3 4.7540167012555262e-01 5.6404669157916949e+00 9.9419383112333310e+00 7.2008182857325149e+00 0 0 0
144 1 3 4.1204792266948381e-01 6.2130467537008212e+00 1.0217488907041211e+01 5.2609061939652069e+00 0 0 0
145 1 2 -5.3213617786272105e-01 3.1248511206576248e+00 1.0504361682398635e+01 6.6920453904379071e+00 0 0 0
146 1 3 3.8132357055267629e-01 2.0379750749529668e+00 1.0485583522389298e+01 6.1213722223151565e+00 0 0 0
147 1 3 4.2703689890524960e-01 3.0871008805462159e+00 1.0280701582535540e+01 7.9499903400086733e+00 0 0 0
148 1 1 -1.4632321556317895e-01 3.7866502263383874e+00 1.0577274160487779e+01 4.4084165018610593e+00 0 0 0
149 1 2 4.1209499707990621e-01 4.8995025055968133e+00 1.0603666899468786e+01 3.3584883468900881e+00 0 0 0
150 1 4 -3.6393470273842571e-01 4.5719448271692675e+00 1.0886423858865903e+01 2.1593670816509123e+00 0 0 0
151 1 4 -4.6180160941755605e-01 6.1603087087265829e+00 1.0395656553727814e+01 3.7112022292822036e+00 0 0 0
152 1 2 4.2986886481114173e-01 2.5102914073025455e+00 1.0624244569398375e+01 3.9018027802103266e+00 0 0 0
153 1 4 -4.7158603644054936e-01 2.1937380670142050e+00 1.0594875462116672e+01 2.5781214474057474e+00 1 0 0
154 1 4 -4.6582825246996862e-01 1.5369161329089190e+01 1.0494316026414698e+01 4.6708007750247296e+00 0 0 0
155 1 1 5.0334226898759704e-01 2.9463757168730091e+00 6.3461111620364683e+00 2.2348483281354852e+01 0 0 -1
156 1 2 -6.2838872275149460e-01 1.6151745975079046e+00 6.1572270030956879e+00 2.2262536509719773e+01 1 0 -1
157 1 3 4.7332445896347136e-01 1.1551564688060352e+00 6.0769025062721536e+00 2.1383118801131467e+01 1 0 0
158 1 3 4.2420406202355115e-01 1.5136800377906239e+01 7.9291839343740129e+00 1.4656207928641696e-01 0 0 0
159 1 2 -5.6488525899835018e-01 3.7030695723340230e+00 6.6161218158579196e+00 2.1254409633942480e+01 0 0 0
160 1 3 4.3128977891763476e-01 4.7661040762094133e+00 6.8035094760546855e+00 2.1552333164980070e+01 0 0 0
161 1 3 4.3668100273191701e-01 3.1417424114580115e+00 6.6335853657273756e+00 2.0054796140526626e+01 0 0 0
162 1 1 -1.4270202213796179e-01 3.9448439749145376e+00 8.2337258207934223e+00 5.1153458921356854e-01 0 0 0
163 1 2 4.3410475823824862e-01 3.1294830044881650e+00 8.0533959774696680e+00 1.6458564452387552e+00 0 0 0
164 1 4 -4.2866249182193256e-01 3.7371573079251941e+00 7.9510745211939176e+00 2.7251595560668367e+00 0 0 0
165 1 4 -5.1762661050037706e-01 1.6907589929956002e+00 7.8501542672955669e+00 1.5472676976389754e+00 1 0 0
166 1 2 4.7008771891368745e-01 5.4600280419800109e+00 8.2326461903235142e+00 6.7467647159958888e-01 0 0 0
167 1 4 -4.7147516722647342e-01 5.9949509393931191e+00 8.0615731596585931e+00 1.8527868429331842e+00 0 0 0
168 1 4 -4.6343133385401680e-01 5.7991582485694551e+00 6.5262016218194514e+00 2.2801574754232938e+01 0 0 -1
169 1 1 4.9568226126000536e-01 1.3889975533180046e+01 7.6805461157825974e+00 4.8641711840028306e+00 0 0 0
170 1 2 -6.2872262702547155e-01 1.2541116232223724e+01 7.5640242861917057e+00 4.6473446089102257e+00 0 0 0
171 1 3 4.6113520575385930e-01 1.2281736126410630e+01 7.5778638667221063e+00 3.5962383265606288e+00 0 0 0
172 1 3 4.2911073802838640e-01 1.1823070619301838e+01 7.4376301747317974e+00 5.6099959218722004e+00 0 0 0
173 1 2 -5.0665672752326152e-01 1.4788570841745603e+01 7.8705214362333393e+00 3.9019302999246452e+00 0 0 0
174 1 3 4.0428808070941008e-01 2.1043454664358734e+00 7.8134258034154396e+00 4.2549470961130380e+00 1 0 0
175 1 3 4.2907678573129704e-01 1.4522802961031019e+01 7.7921812391858873e+00 2.6629821666642943e+00 0 0 0
176 1 1 -1.4430943225183668e-01 1.4416329455475548e+01 7.5431463771594354e+00 6.2322608489304425e+00 0 0 0
177 1 2 4.6722436137843920e-01 1.3430503468674182e+01 7.3464647181436966e+00 7.3776667389959352e+00 0 0 0
178 1 4 -4.0654441571341909e-01 1.3910261978656205e+01 7.1636510005105549e+00 8.5554265137060170e+00 0 0 0
179 1 4 -4.8015826396985883e-01 1.2157492183900109e+01 7.4410223955931052e+00 7.1657792671935425e+00 0 0 0
180 1 2 4.1359131365657925e-01 1.8621622202663848e+00 7.6283259738522533e+00 6.5851450557913003e+00 1 0 0
181 1 4 -4.6479759761966616e-01 2.2085696573166662e+00 7.4556351589539851e+00 7.8891238796044227e+00 0 0 0
182 1 4 -4.7348848047816577e-01 2.7805718659462499e+00 7.7299726587117759e+00 5.6183285229257898e+00 0 0 0
183 1 1 5.2627199662023050e-01 1.4690094469658609e+01 9.7113600298191063e+00 1.1599870132876395e+01 0 0 0
184 1 2 -6.3176315129890748e-01 2.1213387171937650e+00 9.6175242225215651e+00 1.1650918101048280e+01 0 0 0
185 1 3 4.6820860863684327e-01 2.6475271161608642e+00 9.5605857277378377e+00 1.2547124483135780e+01 0 0 0
186 1 3 4.2681505418885896e-01 2.8035286460499771e+00 9.7330904001085941e+00 1.0588485741266384e+01 0 0 0
187 1 2 -5.3412999860402066e-01 1.3917376613693882e+01 9.7391723941361530e+00 1.2735643053247395e+01 0 0 0
188 1 3 4.4477845108245750e-01 1.2823480261195771e+01 9.6696579496192232e+00 1.2525435583210037e+01 0 0 0
189 1 3 4.4560774218627636e-01 1.4382873939370631e+01 9.2172706687577843e+00 1.3789199669024230e+01 0 0 0
190 1 1 -1.0326049177350055e-01 1.4135338778954651e+01 9.8577710531821268e+00 1.0249898626789706e+01 0 0 0
191 1 2 3.9897355636852333e-01 1.4894691435307745e+01 1.0120817347341042e+01 9.1135532724926360e+00 0 0 0
192 1 4 -4.2752433455406968e-01 1.4295254594105266e+01 1.0172974928110333e+01 8.0285892507108638e+00 0 0 0
193 1 4 -5.0906162598935856e-01 2.4127292416856081e+00 1.0419756109402508e+01 9.2850395678065318e+00 0 0 0
194 1 2 4.6300146958272037e-01 1.2582607542951882e+01 9.7552947102972727e+00 1.0040619964165808e+01 0 0 0
195 1 4 -4.3943499994159790e-01 1.2011187426659006e+01 9.7731778904596585e+00 8.8822720906787165e+00 0 0 0
196 1 4 -4.6953550761466761e-01 1.1915536094725875e+01 9.6194299977671847e+00 1.1137758293469441e+01 0 0 0
197 1 1 5.2769732622149856e-01 1.1032514837299933e+01 1.0475479123686901e+01 5.8931649493143095e+00 0 0 0
198 1 2 -6.2498413749171589e-01 1.2338710765998915e+01 1.0320075129433496e+01 6.2130359001989710e+00 0 0 0
199 1 3 4.6099676929016248e-01 1.2539146262685840e+01 1.0136757253590048e+01 7.2645153024747566e+00 0 0 0
200 1 3 4.1568703975308324e-01 1.3171970509121875e+01 1.0216263860908146e+01 5.2782808858797781e+00 0 0 0
201 1 2 -5.3874396958201221e-01 1.0018967165751620e+01 1.0457553834891709e+01 6.7430679783485603e+00 0 0 0
202 1 3 3.9526726652953015e-01 8.9382452296149264e+00 1.0437175395282528e+01 6.1859321180378926e+00 0 0 0
203 1 3 4.3879515578300321e-01 1.0138327391909250e+01 1.0232859435280725e+01 7.9913250261160975e+00 0 0 0
204 1 1 -1.3035387427878747e-01 1.0713728135255312e+01 1.0616184995190892e+01 4.4145711335148281e+00 0 0 0
205 1 2 4.2729321564847023e-01 1.1782779077136713e+01 1.0547980962716872e+01 3.3534817276327700e+00 0 0 0
206 1 4 -3.9565531998395687e-01 1.1479701948487550e+01 1.0712403009595519e+01 2.1324647653323985e+00 0 0 0
207 1 4 -4.4574077531357775e-01 1.3034001509939470e+01 1.0347282112724098e+01 3.7702608661879591e+00 0 0 0
208 1 2 3.8718586624897416e-01 9.4425107333588443e+00 1.0662008243295409e+01 3.9256861094192077e+00 0 0 0
209 1 4 -4.7644513255675569e-01 9.1767944229855942e+00 1.0737851642560551e+01 2.5429466262509273e+00 0 0 0
210 1 4 -4.8385111133737635e-01 8.4110116893206222e+00 1.0619632478308146e+01 4.7610340248128784e+00 0 0 0
211 1 1 4.7363897330332322e-01 9.9044954004799006e+00 6.1753478505772534e+00 2.2321177476717615e+01 0 0 -1
212 1 2 -5.6616308219694678e-01 8.5449135064486370e+00 6.0898093751406410e+00 2.2211984893131344e+01 0 0 -1
213 1 3 4.6192285554922224e-01 8.1473337307529157e+00 6.2054375618525981e+00 2.1230498328692022e+01 0 0 0
214 1 3 4.1357851304470422e-01 8.3253425240880983e+00 7.6268608613647899e+00 1.5632373040101227e-01 0 0 0
215 1 2 -5.1947816103186861e-01 1.0614921615100428e+01 6.3832030840928722e+00 2.1208326399835435e+01 0 0 0
216 1 3 4.2073423412637240e-01 1.1782304494124194e+01 6.4371624283607574e+00 2.1504134318186154e+01 0 0 0
217 1 3 4.1758358410009022e-01 1.0156607319518379e+01 6.5215305775425545e+00 1.9995103044113009e+01 0 0 0
218 1 1 -1.3870549762473317e-01 1.0883681867003075e+01 7.9171190301542644e+00 4.7445774289667209e-01 0 0 0
219 1 2 4.4305181061427357e-01 1.0096115688096280e+01 7.6702806108909263e+00 1.6474387541615763e+00 0 0 0
220 1 4 -4.2082280378341685e-01 1.0685106241275195e+01 7.5018435050929231e+00 2.7310721237421367e+00 0 0 0
221 1 4 -5.0945094425036130e-01 8.6993239437365588e+00 7.6860167592496662e+00 1.5909847683304821e+00 0 0 0
222 1 2 4.5035826655830102e-01 1.2374889901908224e+01 7.8787384385414869e+00 5.9349906650961781e-01 0 0 0
223 1 4 -4.4859963547906945e-01 1.2835395010161424e+01 7.7238485203548795e+00 1.7915062543710891e+00 0 0 0
224 1 4 -4.9002912977115798e-01 1.2774842234757944e+01 6.2405101542102219e+00 2.2733210384261056e+01 0 0 -1
225 1 1 4.9978939815287104e-01 4.6825539963658382e+00 8.6528214603019715e-01 1.6822587585813508e+01 0 0 0
226 1 2 -6.3420129003724901e-01 3.4025703758976524e+00 6.5804504030776589e-01 1.6384277005963483e+01 0 0 0
227 1 3 4.6076606530996722e-01 3.1709572502683478e+00 6.3947690427558668e-01 1.5336326193847507e+01 0 0 0
228 1 3 3.9551546048014852e-01 2.6657799287052590e+00 5.6780485579505480e-01 1.7371053193107493e+01 0 0 0
229 1 2 -4.9742548669299380e-01 5.6402863206472187e+00 9.1214878861403448e-01 1.5948458344448559e+01 0 0 0
230 1 3 4.0262827627139502e-01 6.7306491284912768e+00 1.1537245015714899e+00 1.6496596797123793e+01 0 0 0
231 1 3 4.1108454450785381e-01 5.3667499902718907e+00 1.0455839350933180e+00 1.4667024693049823e+01 0 0 0
232 1 1 -1.2189278527429633e-01 4.9742158674830934e+00 1.0730738764014802e+00 1.8281374913264600e+01 0 0 0
233 1 2 4.1767766623729863e-01 3.8221144258340072e+00 9.7550750506887840e-01 1.9251324864690709e+01 0 0 0
234 1 4 -3.6021437761054120e-01 4.2321391498050325e+00 1.0209339345485784e+00 2.0480687663599390e+01 0 0 0
235 1 4 -4.5534102340791471e-01 2.6019813276489598e+00 6.4795744273510825e-01 1.8964386936043205e+01 0 0 0
236 1 2 4.2754915333807658e-01 6.2758713333866245e+00 1.1628035146892970e+00 1.8771993558384651e+01 0 0 0
237 1 4 -4.4471898070395438e-01 6.4696115456250745e+00 1.2035015549713375e+00 2.0117828937491048e+01 0 0 0
238 1 4 -4.6455409401348213e-01 7.2915044599563901e+00 1.1909971206986427e+00 1.7915606272916328e+01 0 0 0
239 1 1 4.8233082128322580e-01 5.7545034366408672e+00 5.3644149903936391e+00 4.4618945305707924e-01 0 0 1
240 1 2 -5.9705639551776701e-01 7.0661218174789484e+00 5.5160109893173779e+00 8.7211212782786407e-01 0 0 1
241 1 3 4.6336476555628336e-01 7.2108148917215225e+00 5.6759512702616437e+00 1.9312749173889743e+00 0 0 0
242 1 3 4.0539372191922335e-01 7.8634338820991703e+00 5.4863044138558159e+00 -3.9425305665265586e-02 0 0 1
243 1 2 -5.1983954356431084e-01 4.7359861623712698e+00 5.2250548165844020e+00 1.3023884941309092e+00 0 0 0
244 1 3 4.0133533015025336e-01 3.6444679378480420e+00 4.9614166871530347e+00 7.5306595336157400e-01 0 0 0
245 1 3 4.4029152864325460e-01 4.9113253661163956e+00 5.3539948602028522e+00 2.5394004795362681e+00 0 0 0
246 1 1 -1.2838661787072872e-01 5.1358998106381852e+00 3.5009144209970349e+00 2.2190299438472842e+01 0 0 0
247 1 2 4.4060379675820155e-01 6.2577864247689909e+00 3.6586588526310875e+00 2.1145398802023074e+01 0 0 0
248 1 4 -3.6414260710690782e-01 5.8729279009873379e+00 3.7912054093559022e+00 1.9941321565685541e+01 0 0 0
249 1 4 -4.6009242726166077e-01 7.4870230613252389e+00 3.7842799961905644e+00 2.1577537966873308e+01 0 0 0
250 1 2 4.2092460626901196e-01 3.8277446858102158e+00 3.4053773432291141e+00 2.1648056464577806e+01 0 0 0
251 1 4 -4.5689227088483786e-01 3.6263196235158688e+00 3.6055567577623400e+00 2.0308275744372274e+01 0 0 0
252 1 4 -4.6603660218220266e-01 2.8024343687758750e+00 3.2311487056077723e+00 2.2459764268732009e+01 0 0 0
253 1 1 5.3124711338026853e-01 2.3933837037909385e+00 3.9400128460100592e+00 1.7680542505959743e+01 0 0 0
254 1 2 -6.4588000428761561e-01 3.7290620477441792e+00 4.0802214624445021e+00 1.7758259467004940e+01 0 0 0
255 1 3 4.8448437185475463e-01 4.1849940321934147e+00 4.1376524642553330e+00 1.8649085141346845e+01 0 0 0
256 1 3 4.2741863683200926e-01 4.4320281114888314e+00 4.1911692660164253e+00 1.6661252320003562e+01 0 0 0
257 1 2 -5.8885604880394526e-01 1.6041515194990585e+00 3.7635870042019777e+00 1.8777623045805043e+01 0 0 0
258 1 3 4.5087397478232655e-01 1.4431184530150432e+01 3.5950397497304505e+00 1.8574121148449635e+01 -1 0 0
259 1 3 4.2646029634372062e-01 2.1794706956617467e+00 3.6557766233536579e+00 1.9885677198451937e+01 0 0 0
260 1 1 -1.3335076069572510e-01 1.7869758520354488e+00 3.9239306992450973e+00 1.6335206690744677e+01 0 0 0
261 1 2 4.1027455754219100e-01 2.6320791503546932e+00 3.8735530358629564e+00 1.5222649663888847e+01 0 0 0
262 1 4 -4.2016369900324424e-01 2.1548242717401163e+00 4.1342083643443948e+00 1.4121997284594864e+01 0 0 0
263 1 4 -5.1131710536473285e-01 4.0587190664141941e+00 3.5419640360444196e+00 1.5386541179628454e+01 0 0 0
264 1 2 4.6982474762635063e-01 1.4146289528970811e+01 3.9614955122355737e+00 1.6140883069380514e+01 -1 0 0
265 1 4 -4.8230814617883500e-01 1.3661148727142242e+01 4.1048479117814720e+00 1.4978809705172567e+01 0 0 0
266 1 4 -4.8579475969991076e-01 1.3479912339255259e+01 3.8677705316871682e+00 1.7236529008042439e+01 0 0 0
267 1 1 5.1735682985532272e-01 8.1837208905367154e-01 1.4980253686151421e+00 1.1145290998082810e+01 0 0 0
268 1 2 -6.2911628566680522e-01 1.3363009317747137e+01 1.4195123008705286e+00 1.1119809136384887e+01 0 0 0
269 1 3 4.6323173902933118e-01 1.2874513793735510e+01 1.4637069504416913e+00 1.0211237941440228e+01 0 0 0
270 1 3 4.1958502741070447e-01 1.2746424813724550e+01 1.4979302788639657e+00 1.2238149354409360e+01 0 0 0
271 1 2 -5.5500127879851624e-01 1.5897386693815023e+00 1.6528728622966509e+00 1.0038855309951337e+01 0 0 0
272 1 3 4.3981732166668452e-01 2.7727104780018212e+00 1.5746015796258874e+00 1.0125710796712518e+01 0 0 0
273 1 3 4.4549377668622442e-01 1.0737792670548740e+00 1.8629191532729796e+00 8.9656553371576884e+00 0 0 0
274 1 1 -1.2881908504457310e-01 1.4852969380332768e+00 1.2757748747297974e+00 1.2417383348353317e+01 0 0 0
275 1 2 4.3263153864590365e-01 8.0692522833743729e-01 1.4864134359131849e+00 1.3692211980300344e+01 0 0 0
276 1 4 -4.2793628304393283e-01 1.4123197408873409e+00 1.2263322087717365e+00 1.4726314866235775e+01 0 0 0
277 1 4 -5.1016126451376731e-01 1.3299122061909685e+01 1.7891984788049329e+00 1.3640215269933583e+01 0 0 0
278 1 2 4.2855591863154024e-01 2.9475911640838119e+00 1.0514517970002966e+00 1.2420828590693167e+01 0 0 0