ITEM: TIMESTEP
0
ITEM: NUMBER OF ATOMS
672
ITEM: BOX BOUNDS xy xz yz pp pp pp
0.0000000000000000e+00 2.9982000351000000e+01 0.0000000000000000e+00
0.0000000000000000e+00 1.2154000282300000e+01 0.0000000000000000e+00
0.0000000000000000e+00 2.0017000198400002e+01 0.0000000000000000e+00
ITEM: ATOMS id type xs ys zs
1 1 0.142882 0.0700589 0.154541
2 1 0.642882 0.0700589 0.154541
3 1 0.357118 0.929941 0.654541
4 1 0.857118 0.929941 0.654541
5 1 0.392882 0.929941 0.154541
6 1 0.892882 0.929941 0.154541
7 1 0.107118 0.0700588 0.654541
8 1 0.607118 0.0700589 0.654541
9 1 0.142882 0.570059 0.154541
10 1 0.642882 0.570059 0.154541
11 1 0.357118 0.429941 0.654541
12 1 0.857118 0.429941 0.654541
13 1 0.392882 0.429941 0.154541
14 1 0.892882 0.429941 0.154541
15 1 0.107118 0.570059 0.654541
16 1 0.607118 0.570059 0.654541
17 1 0.189426 0.0453706 0.151985
18 1 0.689426 0.0453706 0.151985
19 1 0.310574 0.954629 0.651985
20 1 0.810574 0.954629 0.651985
21 1 0.439426 0.954629 0.151985
22 1 0.939426 0.954629 0.151985
23 1 0.0605738 0.0453706 0.651985
24 1 0.560574 0.0453706 0.651985
25 1 0.189426 0.54537 0.151985
26 1 0.689426 0.54537 0.151985
27 1 0.310574 0.45463 0.651985
28 1 0.810574 0.45463 0.651985
29 1 0.439426 0.45463 0.151985
30 1 0.939426 0.45463 0.151985
31 1 0.0605738 0.54537 0.651985
32 1 0.560574 0.54537 0.651985
33 1 0.214583 0.115229 0.109978
34 1 0.714583 0.115229 0.109978
35 1 0.285417 0.884771 0.609978
36 1 0.785417 0.884771 0.609978
37 1 0.464583 0.884771 0.109978
38 1 0.964583 0.884771 0.109978
39 1 0.0354167 0.115229 0.609978
40 1 0.535417 0.115229 0.609978
41 1 0.214583 0.615229 0.109978
42 1 0.714583 0.615229 0.109978
43 1 0.285417 0.384771 0.609978
44 1 0.785417 0.384771 0.609978
45 1 0.464583 0.384771 0.109978
46 1 0.964583 0.384771 0.109978
47 1 0.0354168 0.615229 0.609978
48 1 0.535417 0.615229 0.609978
49 1 0.195411 0.203386 0.0724816
50 1 0.695411 0.203386 0.0724816
51 1 0.304589 0.796614 0.572482
52 1 0.804589 0.796614 0.572482
53 1 0.445411 0.796614 0.0724816
54 1 0.945411 0.796614 0.0724816
55 1 0.054589 0.203386 0.572482
56 1 0.554589 0.203386 0.572482
57 1 0.195411 0.703386 0.0724816
58 1 0.695411 0.703386 0.0724816
59 1 0.304589 0.296614 0.572482
60 1 0.804589 0.296614 0.572482
61 1 0.445411 0.296614 0.0724816
62 1 0.945411 0.296614 0.0724816
63 1 0.054589 0.703386 0.572482
64 1 0.554589 0.703386 0.572482
65 1 0.148504 0.221968 0.0788432
66 1 0.648504 0.221968 0.0788432
67 1 0.351496 0.778032 0.578843
68 1 0.851496 0.778032 0.578843
69 1 0.398504 0.778032 0.0788433
70 1 0.898504 0.778032 0.0788432
71 1 0.101496 0.221968 0.578843
72 1 0.601496 0.221968 0.578843
73 1 0.148504 0.721968 0.0788433
74 1 0.648504 0.721968 0.0788433
75 1 0.351496 0.278032 0.578843
76 1 0.851496 0.278032 0.578843
77 1 0.398504 0.278032 0.0788433
78 1 0.898504 0.278032 0.0788433
79 1 0.101496 0.721968 0.578843
80 1 0.601496 0.721968 0.578843
81 1 0.120404 0.155183 0.118549
82 1 0.620404 0.155183 0.118549
83 1 0.379596 0.844817 0.618549
84 1 0.879596 0.844817 0.618549
85 1 0.370404 0.844817 0.118549
86 1 0.870404 0.844817 0.118549
87 1 0.129596 0.155183 0.618549
88 1 0.629596 0.155183 0.618549
89 1 0.120404 0.655182 0.118549
90 1 0.620404 0.655182 0.118549
91 1 0.379596 0.344818 0.618549
92 1 0.879596 0.344818 0.618549
93 1 0.370404 0.344818 0.118549
94 1 0.870404 0.344818 0.118549
95 1 0.129596 0.655182 0.618549
96 1 0.629596 0.655182 0.618549
97 1 0.116048 0.999127 0.205641
98 1 0.616048 0.999127 0.205641
99 1 0.383952 0.00087263 0.705641
100 1 0.883952 0.000872663 0.705641
101 1 0.366048 0.000872624 0.205641
102 1 0.866048 0.000872656 0.205641
103 1 0.133952 0.999127 0.705641
104 1 0.633952 0.999127 0.705641
105 1 0.116048 0.499128 0.205641
106 1 0.616048 0.499127 0.205641
107 1 0.383952 0.500872 0.705641
108 1 0.883952 0.500873 0.705641
109 1 0.366048 0.500872 0.205641
110 1 0.866048 0.500873 0.205641
111 1 0.133952 0.499128 0.705641
112 1 0.633952 0.499127 0.705641
113 1 0.26428 0.183065 0.845678
114 1 0.76428 0.183064 0.845678
115 1 0.23572 0.816936 0.345678
116 1 0.73572 0.816936 0.345678
117 1 0.0142799 0.816936 0.845678
118 1 0.51428 0.816936 0.845678
119 1 0.48572 0.183065 0.345678
120 1 0.98572 0.183065 0.345678
121 1 0.26428 0.683064 0.845678
122 1 0.76428 0.683064 0.845679
123 1 0.23572 0.316936 0.345678
124 1 0.73572 0.316936 0.345679
125 1 0.01428 0.316936 0.845678
126 1 0.51428 0.316936 0.845679
127 1 0.48572 0.683064 0.345679
128 1 0.98572 0.683064 0.345679
129 1 0.311231 0.203675 0.847551
130 1 0.811231 0.203675 0.847551
131 1 0.188769 0.796325 0.347551
132 1 0.688769 0.796325 0.347551
133 1 0.0612313 0.796325 0.847551
134 1 0.561231 0.796325 0.847551
135 1 0.438769 0.203675 0.347551
136 1 0.938769 0.203675 0.347551
137 1 0.311231 0.703675 0.847551
138 1 0.811231 0.703675 0.847551
139 1 0.188769 0.296325 0.347551
140 1 0.688769 0.296325 0.347551
141 1 0.0612313 0.296325 0.847551
142 1 0.561231 0.296325 0.847551
143 1 0.438769 0.703675 0.347551
144 1 0.938769 0.703675 0.347551
145 1 0.336097 0.132164 0.889583
146 1 0.836097 0.132164 0.889583
147 1 0.163903 0.867836 0.389583
148 1 0.663902 0.867836 0.389583
149 1 0.0860975 0.867836 0.889583
150 1 0.586098 0.867836 0.889583
151 1 0.413903 0.132164 0.389583
152 1 0.913903 0.132164 0.389583
153 1 0.336097 0.632164 0.889583
154 1 0.836098 0.632164 0.889583
155 1 0.163903 0.367836 0.389583
156 1 0.663902 0.367836 0.389583
157 1 0.0860974 0.367836 0.889583
158 1 0.586098 0.367836 0.889583
159 1 0.413903 0.632164 0.389583
160 1 0.913903 0.632164 0.389583
161 1 0.3176 0.0415564 0.924993
162 1 0.8176 0.0415565 0.924993
163 1 0.1824 0.958444 0.424993
164 1 0.6824 0.958444 0.424993
165 1 0.0675998 0.958444 0.924993
166 1 0.5676 0.958444 0.924993
167 1 0.4324 0.0415564 0.424993
168 1 0.9324 0.0415565 0.424993
169 1 0.3176 0.541556 0.924993
170 1 0.8176 0.541556 0.924993
171 1 0.1824 0.458444 0.424993
172 1 0.6824 0.458444 0.424993
173 1 0.0675998 0.458444 0.924993
174 1 0.5676 0.458444 0.924993
175 1 0.4324 0.541556 0.424993
176 1 0.9324 0.541556 0.424993
177 1 0.270813 0.024243 0.917787
178 1 0.770813 0.024243 0.917787
179 1 0.229187 0.975757 0.417787
180 1 0.729187 0.975757 0.417787
181 1 0.0208132 0.975757 0.917787
182 1 0.520813 0.975757 0.917787
183 1 0.479187 0.024243 0.417787
184 1 0.979187 0.024243 0.417787
185 1 0.270813 0.524243 0.917787
186 1 0.770813 0.524243 0.917787
187 1 0.229187 0.475757 0.417787
188 1 0.729187 0.475757 0.417787
189 1 0.0208132 0.475757 0.917787
190 1 0.520813 0.475757 0.917787
191 1 0.479187 0.524243 0.417787
192 1 0.979187 0.524243 0.417787
193 1 0.242973 0.0958497 0.880774
194 1 0.742974 0.0958496 0.880774
195 1 0.257026 0.90415 0.380774
196 1 0.757026 0.90415 0.380774
197 1 0.492974 0.90415 0.880774
198 1 0.992974 0.90415 0.880774
199 1 0.00702646 0.0958496 0.380774
200 1 0.507026 0.0958496 0.380774
201 1 0.242974 0.59585 0.880774
202 1 0.742974 0.595849 0.880774
203 1 0.257026 0.404151 0.380774
204 1 0.757026 0.404151 0.380774
205 1 0.492974 0.404151 0.880774
206 1 0.992974 0.404151 0.880774
207 1 0.00702628 0.595849 0.380774
208 1 0.507026 0.595849 0.380774
209 1 0.231795 0.2501 0.799668
210 1 0.731795 0.2501 0.799668
211 1 0.268205 0.7499 0.299668
212 1 0.768205 0.7499 0.299668
213 1 0.481795 0.7499 0.799668
214 1 0.981795 0.7499 0.799668
215 1 0.0182047 0.2501 0.299668
216 1 0.518205 0.2501 0.299668
217 1 0.231795 0.7501 0.799668
218 1 0.731795 0.7501 0.799668
219 1 0.268205 0.2499 0.299668
220 1 0.768205 0.2499 0.299668
221 1 0.481795 0.2499 0.799668
222 1 0.981795 0.2499 0.799668
223 1 0.0182047 0.7501 0.299668
224 1 0.518205 0.7501 0.299668
225 2 0.212313 0.955211 0.193772
226 2 0.712313 0.955211 0.193772
227 2 0.287687 0.0447893 0.693772
228 2 0.787687 0.0447892 0.693772
229 2 0.462313 0.0447894 0.193772
230 2 0.962313 0.0447893 0.193772
231 2 0.037687 0.955211 0.693772
232 2 0.537687 0.955211 0.693772
233 2 0.212313 0.45521 0.193772
234 2 0.712313 0.45521 0.193772
235 2 0.287687 0.54479 0.693772
236 2 0.787687 0.54479 0.693772
237 2 0.462313 0.54479 0.193772
238 2 0.962313 0.54479 0.193772
239 2 0.0376869 0.45521 0.693772
240 2 0.537687 0.45521 0.693772
241 2 0.223866 0.273297 0.0263286
242 2 0.723866 0.273297 0.0263286
243 2 0.276134 0.726703 0.526329
244 2 0.776134 0.726703 0.526329
245 2 0.473866 0.726703 0.0263286
246 2 0.973866 0.726703 0.0263286
247 2 0.0261337 0.273297 0.526329
248 2 0.526134 0.273297 0.526329
249 2 0.223866 0.773297 0.0263286
250 2 0.723866 0.773297 0.0263286
251 2 0.276134 0.226703 0.526329
252 2 0.776134 0.226703 0.526329
253 2 0.473866 0.226703 0.0263286
254 2 0.973866 0.226703 0.0263286
255 2 0.0261337 0.773297 0.526329
256 2 0.526134 0.773297 0.526329
257 2 0.0696904 0.175917 0.12172
258 2 0.56969 0.175917 0.12172
259 2 0.43031 0.824083 0.62172
260 2 0.93031 0.824083 0.62172
261 2 0.31969 0.824083 0.12172
262 2 0.81969 0.824083 0.12172
263 2 0.18031 0.175917 0.62172
264 2 0.68031 0.175917 0.62172
265 2 0.0696903 0.675917 0.12172
266 2 0.56969 0.675917 0.12172
267 2 0.43031 0.324083 0.62172
268 2 0.93031 0.324083 0.62172
269 2 0.31969 0.324083 0.12172
270 2 0.81969 0.324083 0.12172
271 2 0.18031 0.675917 0.62172
272 2 0.68031 0.675917 0.62172
273 2 0.335359 0.291842 0.806557
274 2 0.835359 0.291842 0.806557
275 2 0.164641 0.708158 0.306556
276 2 0.664641 0.708158 0.306556
277 2 0.0853589 0.708158 0.806556
278 2 0.585359 0.708158 0.806556
279 2 0.414641 0.291842 0.306557
280 2 0.914641 0.291842 0.306557
281 2 0.335359 0.791842 0.806557
282 2 0.835359 0.791842 0.806556
283 2 0.164641 0.208158 0.306557
284 2 0.664641 0.208158 0.306556
285 2 0.0853588 0.208158 0.806557
286 2 0.585359 0.208158 0.806556
287 2 0.414641 0.791842 0.306557
288 2 0.914641 0.791842 0.306557
289 2 0.345937 0.966905 0.969559
290 2 0.845937 0.966904 0.969559
291 2 0.154063 0.0330956 0.469559
292 2 0.654063 0.0330957 0.469559
293 2 0.0959371 0.0330957 0.969559
294 2 0.595937 0.0330957 0.969559
295 2 0.404063 0.966904 0.469559
296 2 0.904063 0.966905 0.469559
297 2 0.345937 0.466904 0.969559
298 2 0.845937 0.466904 0.969559
299 2 0.154063 0.533096 0.469559
300 2 0.654063 0.533096 0.469559
301 2 0.0959371 0.533096 0.969559
302 2 0.595937 0.533096 0.969559
303 2 0.404063 0.466904 0.469559
304 2 0.904063 0.466904 0.469559
305 2 0.192027 0.0771098 0.880248
306 2 0.692027 0.0771098 0.880248
307 2 0.307973 0.92289 0.380248
308 2 0.807973 0.92289 0.380248
309 2 0.442027 0.92289 0.880248
310 2 0.942027 0.92289 0.880248
311 2 0.0579731 0.0771098 0.380248
312 2 0.557973 0.0771098 0.380248
313 2 0.192027 0.57711 0.880248
314 2 0.692027 0.57711 0.880248
315 2 0.307973 0.42289 0.380248
316 2 0.807973 0.42289 0.380248
317 2 0.442027 0.42289 0.880248
318 2 0.942027 0.42289 0.880248
319 2 0.057973 0.57711 0.380248
320 2 0.557973 0.57711 0.380248
321 3 0.193857 0.859729 0.195956
322 3 0.693857 0.859729 0.195956
323 3 0.306143 0.140271 0.695956
324 3 0.806143 0.140271 0.695956
325 3 0.443857 0.140271 0.195956
326 3 0.943857 0.140271 0.195956
327 3 0.056143 0.859729 0.695956
328 3 0.556143 0.859729 0.695956
329 3 0.193857 0.359729 0.195956
330 3 0.693857 0.359729 0.195956
331 3 0.306143 0.640271 0.695956
332 3 0.806143 0.640271 0.695956
333 3 0.443857 0.640271 0.195956
334 3 0.943857 0.640271 0.195956
335 3 0.0561431 0.359729 0.695956
336 3 0.556143 0.359729 0.695956
337 3 0.24889 0.981953 0.22327
338 3 0.74889 0.981953 0.22327
339 3 0.25111 0.0180469 0.72327
340 3 0.75111 0.018047 0.72327
341 3 0.49889 0.0180469 0.22327
342 3 0.99889 0.018047 0.22327
343 3 0.00110995 0.981953 0.72327
344 3 0.50111 0.981953 0.72327
345 3 0.24889 0.481953 0.22327
346 3 0.74889 0.481953 0.22327
347 3 0.25111 0.518047 0.72327
348 3 0.75111 0.518047 0.72327
349 3 0.49889 0.518047 0.22327
350 3 0.99889 0.518047 0.22327
351 3 0.00111008 0.481953 0.72327
352 3 0.50111 0.481953 0.72327
353 3 0.260545 0.230527 0.00452042
354 3 0.760545 0.230527 0.00452045
355 3 0.239455 0.769473 0.50452
356 3 0.739455 0.769473 0.50452
357 3 0.0105452 0.769473 0.00452048
358 3 0.510545 0.769473 0.00452047
359 3 0.489455 0.230527 0.50452
360 3 0.989455 0.230527 0.50452
361 3 0.260545 0.730527 0.00452044
362 3 0.760545 0.730527 0.00452048
363 3 0.239455 0.269473 0.50452
364 3 0.739455 0.269473 0.50452
365 3 0.0105452 0.269473 0.00452046
366 3 0.510545 0.269473 0.00452046
367 3 0.489455 0.730527 0.50452
368 3 0.989455 0.730527 0.50452
369 3 0.208526 0.369212 0.0106716
370 3 0.708526 0.369212 0.0106716
371 3 0.291474 0.630788 0.510672
372 3 0.791474 0.630788 0.510672
373 3 0.458526 0.630788 0.0106716
374 3 0.958526 0.630788 0.0106716
375 3 0.0414738 0.369212 0.510672
376 3 0.541474 0.369212 0.510672
377 3 0.208526 0.869212 0.0106716
378 3 0.708526 0.869212 0.0106716
379 3 0.291474 0.130788 0.510672
380 3 0.791474 0.130788 0.510672
381 3 0.458526 0.130788 0.0106716
382 3 0.958526 0.130788 0.0106716
383 3 0.0414738 0.869212 0.510672
384 3 0.541474 0.869212 0.510672
385 3 0.0567606 0.274383 0.135252
386 3 0.556761 0.274383 0.135252
387 3 0.443239 0.725617 0.635252
388 3 0.943239 0.725617 0.635252
389 3 0.306761 0.725617 0.135252
390 3 0.806761 0.725617 0.135252
391 3 0.193239 0.274383 0.635252
392 3 0.693239 0.274383 0.635252
393 3 0.0567606 0.774383 0.135252
394 3 0.556761 0.774383 0.135252
395 3 0.443239 0.225617 0.635252
396 3 0.943239 0.225617 0.635252
397 3 0.306761 0.225617 0.135252
398 3 0.806761 0.225617 0.135252
399 3 0.193239 0.774383 0.635252
400 3 0.693239 0.774383 0.635252
401 3 0.0440876 0.0924402 0.112563
402 3 0.544088 0.0924402 0.112563
403 3 0.455912 0.90756 0.612563
404 3 0.955912 0.90756 0.612563
405 3 0.294088 0.90756 0.112563
406 3 0.794088 0.90756 0.112563
407 3 0.205912 0.0924402 0.612563
408 3 0.705912 0.0924402 0.612563
409 3 0.0440877 0.59244 0.112563
410 3 0.544088 0.59244 0.112563
411 3 0.455912 0.40756 0.612563
412 3 0.955912 0.40756 0.612563
413 3 0.294088 0.40756 0.112563
414 3 0.794088 0.40756 0.112563
415 3 0.205912 0.59244 0.612563
416 3 0.705912 0.59244 0.612563
417 3 0.316518 0.386717 0.802315
418 3 0.816518 0.386717 0.802315
419 3 0.183482 0.613283 0.302315
420 3 0.683482 0.613283 0.302315
421 3 0.0665183 0.613283 0.802315
422 3 0.566518 0.613283 0.802315
423 3 0.433482 0.386717 0.302315
424 3 0.933482 0.386717 0.302315
425 3 0.316518 0.886717 0.802315
426 3 0.816518 0.886717 0.802315
427 3 0.183482 0.113283 0.302315
428 3 0.683482 0.113283 0.302315
429 3 0.0665182 0.113283 0.802315
430 3 0.566518 0.113283 0.802315
431 3 0.433482 0.886717 0.302315
432 3 0.933482 0.886717 0.302315
433 3 0.373002 0.265026 0.780044
434 3 0.873002 0.265026 0.780044
435 3 0.126998 0.734974 0.280044
436 3 0.626998 0.734973 0.280044
437 3 0.123002 0.734974 0.780044
438 3 0.623002 0.734974 0.780044
439 3 0.376998 0.265026 0.280044
440 3 0.876998 0.265026 0.280044
441 3 0.373002 0.765026 0.780044
442 3 0.873002 0.765027 0.780044
443 3 0.126998 0.234974 0.280044
444 3 0.626998 0.234973 0.280044
445 3 0.123002 0.234974 0.780044
446 3 0.623002 0.234973 0.780044
447 3 0.376998 0.765026 0.280044
448 3 0.876998 0.765026 0.280044
449 3 0.379607 0.0111945 0.998967
450 3 0.879607 0.0111945 0.998967
451 3 0.120393 0.988805 0.498967
452 3 0.620393 0.988805 0.498967
453 3 0.129607 0.988805 0.998967
454 3 0.629607 0.988805 0.998967
455 3 0.370393 0.0111945 0.498967
456 3 0.870393 0.0111945 0.498967
457 3 0.379607 0.511195 0.998967
458 3 0.879607 0.511195 0.998967
459 3 0.120393 0.488805 0.498967
460 3 0.620393 0.488805 0.498967
461 3 0.129607 0.488805 0.998967
462 3 0.629607 0.488805 0.998967
463 3 0.370393 0.511195 0.498967
464 3 0.870393 0.511195 0.498967
465 3 0.333826 0.865738 0.975299
466 3 0.833826 0.865738 0.975299
467 3 0.166174 0.134261 0.475299
468 3 0.666174 0.134261 0.475299
469 3 0.083826 0.134261 0.975299
470 3 0.583826 0.134261 0.975299
471 3 0.416174 0.865738 0.475299
472 3 0.916174 0.865738 0.475299
473 3 0.333826 0.365739 0.975299
474 3 0.833826 0.365739 0.975299
475 3 0.166174 0.634261 0.475299
476 3 0.666174 0.634261 0.475299
477 3 0.0838259 0.634261 0.975299
478 3 0.583826 0.634261 0.975299
479 3 0.416174 0.365739 0.475299
480 3 0.916174 0.365739 0.475299
481 3 0.178042 0.983113 0.85896
482 3 0.678042 0.983112 0.85896
483 3 0.321958 0.016888 0.358959
484 3 0.821958 0.0168884 0.358959
485 3 0.428042 0.0168885 0.858959
486 3 0.928042 0.016888 0.858959
487 3 0.0719583 0.983113 0.35896
488 3 0.571958 0.983113 0.35896
489 3 0.178042 0.483112 0.858959
490 3 0.678042 0.483112 0.858959
491 3 0.321958 0.516888 0.358959
492 3 0.821958 0.516888 0.358959
493 3 0.428042 0.516888 0.858959
494 3 0.928042 0.516888 0.858959
495 3 0.0719582 0.483112 0.358959
496 3 0.571958 0.483112 0.358959
497 3 0.167518 0.157891 0.900136
498 3 0.667518 0.157891 0.900136
499 3 0.332482 0.842108 0.400136
500 3 0.832482 0.842108 0.400136
501 3 0.417518 0.842108 0.900136
502 3 0.917518 0.842108 0.900136
503 3 0.0824819 0.157891 0.400136
504 3 0.582482 0.157891 0.400136
505 3 0.167518 0.657891 0.900136
506 3 0.667518 0.657892 0.900136
507 3 0.332482 0.342108 0.400136
508 3 0.832482 0.342108 0.400136
509 3 0.417518 0.342108 0.900136
510 3 0.917518 0.342108 0.900136
511 3 0.0824819 0.657892 0.400136
512 3 0.582482 0.657892 0.400136
513 4 0.136462 0.969739 0.248076
514 4 0.636462 0.969739 0.248076
515 4 0.363538 0.0302613 0.748076
516 4 0.863538 0.0302613 0.748076
517 4 0.386462 0.0302613 0.248076
518 4 0.886462 0.0302613 0.248076
519 4 0.113538 0.969739 0.748076
520 4 0.613538 0.969739 0.748076
521 4 0.136462 0.469739 0.248076
522 4 0.636462 0.469739 0.248076
523 4 0.363538 0.530261 0.748076
524 4 0.863538 0.530261 0.748076
525 4 0.386462 0.530261 0.248076
526 4 0.886462 0.530261 0.248076
527 4 0.113538 0.469739 0.748076
528 4 0.613538 0.469739 0.748076
529 4 0.101563 0.92381 0.183793
530 4 0.601562 0.92381 0.183793
531 4 0.398437 0.0761899 0.683793
532 4 0.898437 0.0761899 0.683793
533 4 0.351563 0.0761899 0.183793
534 4 0.851563 0.0761899 0.183793
535 4 0.148437 0.92381 0.683793
536 4 0.648438 0.92381 0.683793
537 4 0.101562 0.42381 0.183793
538 4 0.601562 0.42381 0.183793
539 4 0.398438 0.57619 0.683793
540 4 0.898437 0.57619 0.683793
541 4 0.351562 0.57619 0.183793
542 4 0.851562 0.57619 0.183793
543 4 0.148438 0.42381 0.683793
544 4 0.648438 0.42381 0.683793
545 4 0.0873864 0.0420086 0.228252
546 4 0.587386 0.0420086 0.228252
547 4 0.412614 0.957991 0.728252
548 4 0.912614 0.957991 0.728252
549 4 0.337386 0.957991 0.228252
550 4 0.837386 0.957991 0.228252
551 4 0.162614 0.0420086 0.728252
552 4 0.662614 0.0420086 0.728252
553 4 0.0873864 0.542009 0.228252
554 4 0.587386 0.542009 0.228252
555 4 0.412614 0.457991 0.728252
556 4 0.912614 0.457991 0.728252
557 4 0.337386 0.457991 0.228252
558 4 0.837386 0.457991 0.228252
559 4 0.162614 0.542009 0.728252
560 4 0.662614 0.542009 0.728252
561 4 0.250711 0.100541 0.106803
562 4 0.750711 0.100541 0.106803
563 4 0.249289 0.899459 0.606803
564 4 0.749289 0.899459 0.606803
565 4 0.500711 0.899459 0.106803
566 4 0.000710981 0.899459 0.106803
567 4 0.999289 0.100541 0.606803
568 4 0.499289 0.100541 0.606803
569 4 0.250711 0.600541 0.106803
570 4 0.750711 0.600541 0.106803
571 4 0.249289 0.399459 0.606803
572 4 0.749289 0.399459 0.606803
573 4 0.500711 0.399459 0.106803
574 4 0.000711162 0.399459 0.106803
575 4 0.999289 0.600541 0.606803
576 4 0.499289 0.600541 0.606803
577 4 0.133292 0.289533 0.0499782
578 4 0.633292 0.289533 0.0499782
579 4 0.366708 0.710467 0.549978
580 4 0.866708 0.710467 0.549978
581 4 0.383292 0.710467 0.0499782
582 4 0.883292 0.710467 0.0499782
583 4 0.116708 0.289533 0.549978
584 4 0.616708 0.289533 0.549978
585 4 0.133292 0.789533 0.0499782
586 4 0.633292 0.789533 0.0499782
587 4 0.366708 0.210467 0.549978
588 4 0.866708 0.210467 0.549978
589 4 0.383292 0.210467 0.0499782
590 4 0.883292 0.210467 0.0499782
591 4 0.116708 0.789533 0.549978
592 4 0.616708 0.789533 0.549978
593 4 0.247723 0.28447 0.754761
594 4 0.747723 0.28447 0.754761
595 4 0.252277 0.71553 0.254762
596 4 0.752277 0.71553 0.254762
597 4 0.497723 0.71553 0.754762
598 4 0.997723 0.71553 0.754762
599 4 0.00227695 0.28447 0.254761
600 4 0.502277 0.28447 0.254761
601 4 0.247723 0.78447 0.754762
602 4 0.747723 0.78447 0.754762
603 4 0.252277 0.21553 0.254762
604 4 0.752277 0.21553 0.254762
605 4 0.497723 0.21553 0.754762
606 4 0.997723 0.21553 0.754762
607 4 0.00227697 0.78447 0.254762
608 4 0.502277 0.78447 0.254762
609 4 0.203812 0.199942 0.781068
610 4 0.703812 0.199942 0.781068
611 4 0.296188 0.800058 0.281068
612 4 0.796188 0.800058 0.281068
613 4 0.453812 0.800058 0.781068
614 4 0.953812 0.800058 0.781068
615 4 0.0461879 0.199942 0.281068
616 4 0.546188 0.199942 0.281068
617 4 0.203812 0.699942 0.781068
618 4 0.703812 0.699942 0.781068
619 4 0.296188 0.300058 0.281068
620 4 0.796188 0.300058 0.281068
621 4 0.453812 0.300058 0.781068
622 4 0.953812 0.300058 0.781068
623 4 0.0461878 0.699942 0.281068
624 4 0.546188 0.699942 0.281068
625 4 0.216198 0.320465 0.825287
626 4 0.716198 0.320464 0.825287
627 4 0.283802 0.679536 0.325287
628 4 0.783802 0.679536 0.325287
629 4 0.466198 0.679536 0.825287
630 4 0.966198 0.679536 0.825287
631 4 0.0338025 0.320465 0.325287
632 4 0.533802 0.320465 0.325287
633 4 0.216198 0.820464 0.825287
634 4 0.716198 0.820464 0.825287
635 4 0.283802 0.179536 0.325287
636 4 0.783802 0.179536 0.325287
637 4 0.466198 0.179536 0.825287
638 4 0.966198 0.179536 0.825287
639 4 0.0338024 0.820464 0.325287
640 4 0.533802 0.820464 0.325287
641 4 0.372098 0.146029 0.894006
642 4 0.872098 0.146029 0.894006
643 4 0.127902 0.853971 0.394006
644 4 0.627902 0.853971 0.394006
645 4 0.122098 0.853971 0.894006
646 4 0.622098 0.853971 0.894006
647 4 0.377902 0.146029 0.394006
648 4 0.877902 0.146029 0.394006
649 4 0.372098 0.646029 0.894006
650 4 0.872098 0.646029 0.894006
651 4 0.127902 0.353971 0.394006
652 4 0.627902 0.353971 0.394006
653 4 0.122098 0.353971 0.894006
654 4 0.622098 0.353971 0.894006
655 4 0.377902 0.646029 0.394006
656 4 0.877902 0.646029 0.394006
657 4 0.25534 0.954744 0.944516
658 4 0.75534 0.954744 0.944516
659 4 0.24466 0.0452561 0.444516
660 4 0.74466 0.0452561 0.444516
661 4 0.00534001 0.0452561 0.944516
662 4 0.50534 0.0452561 0.944516
663 4 0.49466 0.954744 0.444516
664 4 0.99466 0.954744 0.444516
665 4 0.25534 0.454744 0.944516
666 4 0.75534 0.454744 0.944516
667 4 0.24466 0.545256 0.444516
668 4 0.74466 0.545256 0.444516
669 4 0.0053401 0.545256 0.944516
670 4 0.50534 0.545256 0.944516
671 4 0.49466 0.454744 0.444516
672 4 0.99466 0.454744 0.444516
ITEM: TIMESTEP
1000
ITEM: NUMBER OF ATOMS
672
ITEM: BOX BOUNDS xy xz yz pp pp pp
-1.1897593519654912e+00 3.1269344636995939e+01 -1.7811281160824888e-01
3.2429253633077228e-02 1.2090742244431567e+01 2.7569774563857513e-01
-7.3816271607527462e-01 2.0755162914475306e+01 -3.0828784235344318e-02
ITEM: ATOMS id type xs ys zs
1 1 0.150425 0.0443642 0.163309
2 1 0.636726 0.0732211 0.174094
3 1 0.345023 0.969375 0.647869
4 1 0.852317 0.949443 0.649013
5 1 0.39618 0.908365 0.153123
6 1 0.900419 0.934835 0.153531
7 1 0.104517 0.0572669 0.65138
8 1 0.612857 0.0496029 0.651848
9 1 0.145601 0.572788 0.157211
10 1 0.651795 0.567441 0.150157
11 1 0.357581 0.485751 0.661109
12 1 0.850847 0.427175 0.668376
13 1 0.399433 0.428536 0.16645
14 1 0.902437 0.446488 0.151428
15 1 0.10542 0.578991 0.657716
16 1 0.602994 0.527087 0.666357
17 1 0.194244 0.0253947 0.161956
18 1 0.68059 0.048971 0.169541
19 1 0.301575 0.986016 0.653277
20 1 0.80715 0.958369 0.648992
21 1 0.440502 0.920629 0.149958
22 1 0.944544 0.951145 0.154902
23 1 0.0639163 0.0109605 0.649075
24 1 0.570014 0.0188646 0.647346
25 1 0.1885 0.547439 0.157141
26 1 0.69422 0.536377 0.155632
27 1 0.314486 0.504896 0.655505
28 1 0.808148 0.455318 0.664585
29 1 0.442886 0.447909 0.15828
30 1 0.946213 0.468087 0.149162
31 1 0.0615367 0.552966 0.657262
32 1 0.558398 0.521723 0.663033
33 1 0.218841 0.101713 0.126525
34 1 0.703676 0.109937 0.122638
35 1 0.275292 0.91868 0.61511
36 1 0.783158 0.905119 0.600436
37 1 0.461895 0.856969 0.103367
38 1 0.969094 0.889902 0.110326
39 1 0.0375225 0.0609916 0.604988
40 1 0.544076 0.0903467 0.609358
41 1 0.216224 0.598794 0.11295
42 1 0.723897 0.581449 0.110569
43 1 0.291901 0.442814 0.60832
44 1 0.787139 0.400452 0.616282
45 1 0.461935 0.385026 0.110871
46 1 0.969143 0.39698 0.108385
47 1 0.0359412 0.605097 0.612343
48 1 0.539332 0.574399 0.611521
49 1 0.205729 0.198246 0.0925273
50 1 0.68838 0.19637 0.0870197
51 1 0.292195 0.836289 0.575084
52 1 0.799013 0.826054 0.557465
53 1 0.440224 0.784965 0.0619535
54 1 0.949859 0.811582 0.0698657
55 1 0.0462037 0.154733 0.565289
56 1 0.559839 0.183611 0.576295
57 1 0.20228 0.671679 0.0681402
58 1 0.713582 0.658857 0.066235
59 1 0.309383 0.351256 0.577435
60 1 0.804192 0.327125 0.569951
61 1 0.444596 0.295553 0.0754162
62 1 0.951013 0.306237 0.0738104
63 1 0.0497869 0.678921 0.566022
64 1 0.558571 0.65994 0.574689
65 1 0.162845 0.213822 0.104854
66 1 0.644779 0.219422 0.0970567
67 1 0.336322 0.816417 0.579435
68 1 0.842591 0.801754 0.568911
69 1 0.395537 0.772295 0.0712565
70 1 0.907421 0.787707 0.0805642
71 1 0.0857834 0.206627 0.577029
72 1 0.603672 0.206882 0.583809
73 1 0.158474 0.698887 0.0725098
74 1 0.670584 0.69848 0.0694978
75 1 0.351122 0.32009 0.596089
76 1 0.846471 0.295921 0.579624
77 1 0.401168 0.282968 0.0853104
78 1 0.906772 0.290136 0.0752975
79 1 0.0940371 0.705633 0.569366
80 1 0.600637 0.684221 0.593281
81 1 0.135142 0.150859 0.141013
82 1 0.618134 0.15823 0.136114
83 1 0.364234 0.885326 0.611291
84 1 0.867646 0.85952 0.61254
85 1 0.372736 0.830364 0.118417
86 1 0.880137 0.848236 0.121495
87 1 0.114356 0.157174 0.617156
88 1 0.630354 0.142868 0.618975
89 1 0.129479 0.658181 0.117991
90 1 0.638548 0.654565 0.108526
91 1 0.376019 0.389645 0.63242
92 1 0.870615 0.355308 0.624888
93 1 0.377957 0.348117 0.129571
94 1 0.882685 0.351969 0.120161
95 1 0.120736 0.661966 0.614703
96 1 0.624773 0.614954 0.631692
97 1 0.120155 0.969186 0.201683
98 1 0.609587 0.0133871 0.224336
99 1 0.37425 0.0419999 0.690157
100 1 0.879894 0.0115603 0.698612
101 1 0.368147 0.968823 0.203163
102 1 0.875609 0.0112902 0.200009
103 1 0.13982 0.996437 0.687027
104 1 0.640172 0.982647 0.69768
105 1 0.11722 0.51482 0.208225
106 1 0.619871 0.504787 0.193245
107 1 0.385947 0.555715 0.706617
108 1 0.878665 0.48453 0.71707
109 1 0.373754 0.489579 0.215791
110 1 0.870603 0.509247 0.193685
111 1 0.137081 0.531489 0.70571
112 1 0.626068 0.442886 0.706625
113 1 0.275096 0.212198 0.830079
114 1 0.779139 0.1785 0.8518
115 1 0.223001 0.824085 0.35821
116 1 0.725807 0.801545 0.341447
117 1 0.0244262 0.845762 0.846001
118 1 0.523507 0.854595 0.865654
119 1 0.471366 0.171439 0.350321
120 1 0.97762 0.183078 0.332939
121 1 0.269416 0.698712 0.853588
122 1 0.770757 0.654103 0.8529
123 1 0.211858 0.295397 0.327196
124 1 0.725131 0.337245 0.355852
125 1 0.035423 0.297504 0.839288
126 1 0.527842 0.311296 0.857972
127 1 0.471748 0.654871 0.353994
128 1 0.967546 0.682385 0.336681
129 1 0.319427 0.218363 0.838205
130 1 0.822857 0.191751 0.852849
131 1 0.177354 0.805102 0.357774
132 1 0.682193 0.78627 0.349475
133 1 0.068037 0.814297 0.847962
134 1 0.56697 0.827819 0.863313
135 1 0.427754 0.181729 0.340614
136 1 0.934286 0.205589 0.343205
137 1 0.31333 0.724519 0.856815
138 1 0.814408 0.680923 0.851219
139 1 0.170417 0.264098 0.342026
140 1 0.681111 0.312441 0.35628
141 1 0.078486 0.277321 0.844141
142 1 0.571135 0.280922 0.862209
143 1 0.428022 0.682381 0.356013
144 1 0.923571 0.698789 0.336137
145 1 0.340346 0.141573 0.875602
146 1 0.846085 0.125327 0.893942
147 1 0.154135 0.865997 0.39996
148 1 0.662776 0.861393 0.392326
149 1 0.0926368 0.875878 0.890809
150 1 0.592702 0.88986 0.905019
151 1 0.401814 0.114034 0.378491
152 1 0.910321 0.137198 0.384523
153 1 0.336398 0.653677 0.89527
154 1 0.838939 0.608128 0.889959
155 1 0.147024 0.332639 0.383797
156 1 0.657733 0.380799 0.396486
157 1 0.101614 0.340848 0.888842
158 1 0.594143 0.345757 0.903624
159 1 0.405222 0.613129 0.3989
160 1 0.899112 0.627333 0.375559
161 1 0.320653 0.0610623 0.914681
162 1 0.826703 0.0383799 0.92962
163 1 0.169314 0.966916 0.429828
164 1 0.685979 0.940804 0.428985
165 1 0.0765946 0.966081 0.926701
166 1 0.575381 0.975678 0.941398
167 1 0.4174 0.0346205 0.419907
168 1 0.926172 0.0387988 0.411053
169 1 0.318507 0.556028 0.923871
170 1 0.825596 0.509152 0.920066
171 1 0.162794 0.432348 0.406947
172 1 0.676652 0.478046 0.426848
173 1 0.082813 0.436541 0.91785
174 1 0.579511 0.44721 0.932533
175 1 0.42189 0.52055 0.430624
176 1 0.916334 0.53783 0.409788
177 1 0.27633 0.0604818 0.904314
178 1 0.783843 0.0204769 0.922223
179 1 0.211793 0.00179874 0.415796
180 1 0.729053 0.959076 0.41026
181 1 0.0342619 0.99356 0.919463
182 1 0.534112 0.00465895 0.93215
183 1 0.461499 0.0286215 0.425344
184 1 0.96957 0.0176592 0.397249
185 1 0.277178 0.528728 0.91136
186 1 0.781515 0.482831 0.909489
187 1 0.205073 0.463696 0.388015
188 1 0.717318 0.510654 0.408709
189 1 0.0424304 0.467035 0.898982
190 1 0.539018 0.482041 0.915329
191 1 0.465989 0.500351 0.424701
192 1 0.960564 0.519244 0.402483
193 1 0.251896 0.136275 0.868709
194 1 0.757899 0.0912741 0.88386
195 1 0.238324 0.927395 0.381583
196 1 0.750077 0.889772 0.364821
197 1 0.505308 0.943147 0.895704
198 1 0.00656119 0.932686 0.880451
199 1 0.997071 0.0910718 0.363661
200 1 0.490665 0.0951895 0.391185
201 1 0.250703 0.602241 0.877322
202 1 0.755106 0.553193 0.877354
203 1 0.232199 0.390704 0.355352
204 1 0.744987 0.437998 0.375054
205 1 0.51248 0.413091 0.879745
206 1 0.0155668 0.395715 0.86264
207 1 0.986438 0.587921 0.364689
208 1 0.490958 0.569611 0.386358
209 1 0.250606 0.291142 0.785434
210 1 0.749437 0.243258 0.807521
211 1 0.252536 0.73951 0.327515
212 1 0.747611 0.735336 0.28885
213 1 0.493397 0.784199 0.824295
214 1 0.991391 0.783156 0.806466
215 1 0.00713767 0.249098 0.287829
216 1 0.498258 0.255083 0.310435
217 1 0.238464 0.769839 0.81136
218 1 0.738151 0.728868 0.824699
219 1 0.238069 0.224449 0.281657
220 1 0.753592 0.270641 0.310646
221 1 0.493854 0.244382 0.821518
222 1 0.00510255 0.229436 0.797404
223 1 0.994618 0.773847 0.304432
224 1 0.500302 0.726692 0.309873
225 2 0.216347 0.925259 0.196416