LAMMPS data file via write_data, version 15 Apr 2020, timestep = 80000

672 atoms
4 atom types

1.0319840281382593e+00 2.8950016322860918e+01 xlo xhi
-1.1688257324966758e+00 1.3322826014796712e+01 ylo yhi
-7.1512626963976089e-02 2.0088512825364347e+01 zlo zhi
1.9648247564831708e-01 2.3516743049601732e-02 -4.0266995976292053e-01 xy xz yz

Masses

1 12.0107
2 14.0067
3 15.9994
4 1.00794

Atoms # full

1 1 1 1.0761347298071186e-01 5.5523080750916627e+00 5.0147862016650491e-01 2.9773941957308430e+00 0 0 0
2 1 1 9.9809637167751181e-02 1.9041208460205556e+01 9.3772014622912092e-01 2.8638670198061460e+00 0 0 0
3 1 1 9.9050905484841065e-02 1.0895844932664719e+01 1.1063752600347030e+01 1.3079162064605862e+01 0 0 0
4 1 1 1.0129374203572850e-01 2.4911119155541453e+01 1.1066422644536154e+01 1.2742724695328443e+01 0 0 0
5 1 1 9.0957511703282284e-02 1.2193411218435012e+01 1.0963664357718663e+01 3.2320535041074798e+00 0 0 0
6 1 1 9.6847298630472922e-02 2.6130589881574462e+01 1.1288243125767384e+01 2.8067545763945052e+00 0 0 0
7 1 1 1.1312397678980286e-01 3.7953140466056245e+00 7.4522263493451968e-01 1.3207652332132273e+01 0 0 0
8 1 1 1.0509521030080518e-01 1.7562503858943352e+01 1.7317440364908587e-01 1.3184726866456939e+01 0 0 0
9 1 1 1.0982696864295070e-01 5.3845868789372791e+00 7.8908632554279245e+00 2.7299095155838589e+00 0 0 0
10 1 1 9.1789371668563838e-02 1.9293760099874717e+01 8.0428945762630804e+00 3.0584585471871795e+00 0 0 0
11 1 1 9.4521818980207256e-02 1.0950063703165890e+01 3.9338025045820846e+00 1.3227813637539084e+01 0 0 0
12 1 1 9.5991430093216520e-02 2.4985521297577492e+01 4.0885919608867178e+00 1.2849793853940172e+01 0 0 0
13 1 1 9.9393964737695378e-02 1.2540530183781176e+01 4.1056735362308467e+00 3.2004388142868923e+00 0 0 0
14 1 1 9.6705152176680978e-02 2.6329625998282658e+01 4.0312205756901633e+00 2.7499320937429195e+00 0 0 0
15 1 1 9.7485003256383151e-02 3.6981423847579782e+00 7.8170576892213157e+00 1.3361463493852600e+01 0 0 0
16 1 1 9.5975089979531525e-02 1.7750146604021943e+01 7.5526661482485382e+00 1.3041361787587837e+01 0 0 0
17 1 1 1.6364224175106731e-02 6.8628936851188751e+00 -1.4324670035177234e-01 2.8229455633738265e+00 0 0 0
18 1 1 2.1437625209970196e-02 2.0315309729484277e+01 1.9650014179309250e-01 2.8181525254781348e+00 0 0 0
19 1 1 1.5598265726649956e-02 9.7201088213137261e+00 1.1817945067742180e+01 1.3026829370152361e+01 0 0 0
20 1 1 7.5325005143628901e-03 2.3623596993975347e+01 1.1705912181771691e+01 1.2663455959527587e+01 0 0 0
21 1 1 2.9599064560274061e-02 1.3407066642783626e+01 1.1719961197520743e+01 2.9986294158451989e+00 0 0 0
22 1 1 2.4798886277546586e-02 2.7425596027861193e+01 1.1944996848310456e+01 2.6878782667379477e+00 0 0 0
23 1 1 2.7417990422000001e-02 2.6715770502288256e+00 -5.7133699669316362e-02 1.2763546565742189e+01 0 0 0
24 1 1 6.5463447676958261e-03 1.6335786386772341e+01 -5.1625682700988929e-01 1.2929604057523875e+01 0 0 0
25 1 1 3.1749213931273092e-02 6.6108982717837623e+00 7.1081114922855564e+00 2.6456350168116969e+00 0 0 0
26 1 1 1.0594130343445141e-02 2.0471590537645366e+01 7.2663309475027598e+00 2.7052943699019365e+00 0 0 0
27 1 1 2.6249992610246894e-02 9.8666364399940534e+00 4.7838712185027541e+00 1.2827499204282573e+01 0 0 0
28 1 1 7.3825484387060013e-03 2.3802490195431815e+01 4.8699908723471177e+00 1.2717507401741772e+01 0 0 0
29 1 1 9.8499330512081332e-03 1.3767101035791436e+01 4.7372251244650618e+00 2.8184218894145885e+00 0 0 0
30 1 1 1.6185280954878721e-02 2.7595080653276252e+01 4.6695948461153147e+00 2.6351932676499095e+00 0 0 0
31 1 1 1.7781786437214613e-02 2.5284603559438805e+00 7.1693924572231298e+00 1.2868023766049681e+01 0 0 0
32 1 1 1.8710305980935774e-02 1.6437836882547348e+01 6.9700936671542264e+00 1.2889272749615682e+01 0 0 0
33 1 1 -2.8540634641299398e-02 7.8109707564873565e+00 6.3494031248593852e-01 2.0618129953465640e+00 0 0 0
34 1 1 -3.6598383735099244e-02 2.1373397204738705e+01 8.8612216420126044e-01 2.1055279382128860e+00 0 0 0
35 1 1 -3.6909445330062574e-02 8.7217400386452990e+00 1.1318122468692593e+01 1.2097831108656518e+01 0 0 0
36 1 1 -2.8893883880416381e-02 2.2790797835905625e+01 1.1102160330590483e+01 1.1685636516830872e+01 0 0 0
37 1 1 -2.3737182414553831e-02 1.4204397961656463e+01 1.1090458794709193e+01 1.9909728379577603e+00 0 0 0
38 1 1 -4.2760408543149150e-02 2.8337889983531291e+01 1.1218634810072430e+01 1.9212311890452776e+00 0 0 0
39 1 1 -2.2545641636559779e-02 1.7747553615011338e+00 4.7419720104718555e-01 1.1849616221018399e+01 0 0 0
40 1 1 -1.9714744810045624e-02 1.5581016287580942e+01 1.8676455463748431e-01 1.2004226529093609e+01 0 0 0
41 1 1 -2.1810913422088171e-02 7.5621534539344832e+00 7.6172754497892177e+00 1.6864647388982996e+00 0 0 0
42 1 1 -3.6038320417818653e-02 2.1376774151036066e+01 7.9282571408273528e+00 1.8220823256614980e+00 0 0 0
43 1 1 -3.6085550871600827e-02 8.8682103787569542e+00 4.2201177901769000e+00 1.1983260701280908e+01 0 0 0
44 1 1 -3.4790717847667373e-02 2.2857788688896296e+01 4.2905836974590059e+00 1.1794826301496334e+01 0 0 0
45 1 1 -1.8874124790108138e-02 1.4654927345467106e+01 4.0025650677595923e+00 1.9733856347981047e+00 0 0 0
46 1 1 -4.7819803072454550e-02 2.8622439307701480e+01 3.9815107978095705e+00 1.8875026335530942e+00 0 0 0
47 1 1 -1.1760278537007292e-02 1.9972004129471537e+00 7.8286684729745177e+00 1.1708907351386953e+01 0 0 0
48 1 1 -3.7030284913099704e-02 1.5571194810831191e+01 7.7880403900080593e+00 1.2030748948401856e+01 0 0 0
49 1 1 3.0993674410032167e-02 7.5257195175752685e+00 1.9488387060360859e+00 1.6266276360491401e+00 0 0 0
50 1 1 3.3316448425960765e-02 2.1216515848010868e+01 2.1844210284676620e+00 1.5785541778464371e+00 0 0 0
51 1 1 4.0623294959530820e-02 8.8090619081070667e+00 1.0246052478149323e+01 1.1243788063564088e+01 0 0 0
52 1 1 3.9425402955011277e-02 2.3021104247682207e+01 9.7733790586733420e+00 1.1194306448772847e+01 0 0 0
53 1 1 5.3841746774496456e-02 1.3844744889638955e+01 9.9577595274630113e+00 1.2733273248244319e+00 0 0 0
54 1 1 3.9613410804111154e-02 2.8124100931940355e+01 9.9954745581986231e+00 1.2411882595476136e+00 0 0 0
55 1 1 5.2869569571408113e-02 1.9532616703478316e+00 1.7722334023933537e+00 1.1278778325454279e+01 0 0 0
56 1 1 3.8741013146706443e-02 1.5891925678057852e+01 1.5120262694842657e+00 1.1462263030803932e+01 0 0 0
57 1 1 3.1685159321158354e-02 7.4040321096134685e+00 8.8534234914908545e+00 1.0380122339323916e+00 0 0 0
58 1 1 2.3873953725289651e-02 2.1267486371900201e+01 9.2772319231385936e+00 1.4508260801386978e+00 0 0 0
59 1 1 4.5799412835989768e-02 8.9464078369769204e+00 3.0085542933527796e+00 1.1385052420324079e+01 0 0 0
60 1 1 3.5665659526919240e-02 2.2997268581572957e+01 3.0839764568429651e+00 1.1019209310796100e+01 0 0 0
61 1 1 4.7354260551475819e-02 1.4332534499187794e+01 2.6836203253095907e+00 1.5339253017086403e+00 0 0 0
62 1 1 4.5256323679876378e-02 2.8431051895715736e+01 2.6768618883071706e+00 1.3937465460633416e+00 0 0 0
63 1 1 5.1431623744890825e-02 2.4369849873781497e+00 9.0874574174142602e+00 1.1272598321141102e+01 0 0 0
64 1 1 3.8974358230746700e-02 1.5891265181921302e+01 9.0729187328742533e+00 1.1583744705929490e+01 0 0 0
65 1 1 -3.7687244197021644e-02 6.2739566007823573e+00 2.5308067191200894e+00 2.0157264892730442e+00 0 0 0
66 1 1 -5.1624702159681825e-02 2.0025852961090038e+01 2.9133069071163886e+00 1.8829560845669446e+00 0 0 0
67 1 1 -2.0729734820047169e-02 1.0092824019145523e+01 9.5369510511052198e+00 1.1371039679726932e+01 0 0 0
68 1 1 -3.6380399748151021e-02 2.4152957296409344e+01 9.0749146504269831e+00 1.1680287443348684e+01 0 0 0
69 1 1 -2.3477360023903587e-02 1.2677401263266260e+01 9.2462033668661441e+00 1.6638629522251636e+00 0 0 0
70 1 1 -4.5193249776225519e-02 2.6944622217700601e+01 9.3666691829948299e+00 1.6086413190737225e+00 0 0 0
71 1 1 -4.4327792294351853e-02 2.9830816212158129e+00 2.5243254770031358e+00 1.1841865454658096e+01 0 0 0
72 1 1 -4.0807028509755525e-02 1.7097071500668381e+01 2.0877641692007924e+00 1.1842541061699210e+01 0 0 0
73 1 1 -3.1690772719388985e-02 6.2669180856888342e+00 9.6864010315707247e+00 1.3536813503752780e+00 0 0 0
74 1 1 -5.6649183413102155e-02 2.0136390333901019e+01 9.9806146122103812e+00 1.9818552209532512e+00 0 0 0
75 1 1 -4.0794161748940960e-02 1.0074795537005990e+01 2.1357481009903139e+00 1.1721741000092450e+01 0 0 0
76 1 1 -3.6194644522892304e-02 2.4190233019030021e+01 2.3702673737416879e+00 1.1312922804722216e+01 0 0 0
77 1 1 -4.4125910545210825e-02 1.3175377315252087e+01 2.0653899522248387e+00 2.1252132871442386e+00 0 0 0
78 1 1 -5.2974206893348752e-02 2.7197010302675295e+01 2.0446282994369831e+00 1.7579607345180390e+00 0 0 0
79 1 1 -1.7940842018254174e-02 3.6185937401360007e+00 9.6623648688370665e+00 1.1897753086472338e+01 0 0 0
80 1 1 -3.2052442690417210e-02 1.7181536088606773e+01 9.5891118972520637e+00 1.1910308365509259e+01 0 0 0
81 1 1 3.8695566914697770e-02 5.2688332273065539e+00 1.8592015429222735e+00 2.7020180897453545e+00 0 0 0
82 1 1 1.2281324264581239e-02 1.8871513520340123e+01 2.2807176770570288e+00 2.5071473343031090e+00 0 0 0
83 1 1 2.9061779199367217e-02 1.1041431670228821e+01 9.7615430108808106e+00 1.2387237891570454e+01 0 0 0
84 1 1 2.9113255236634522e-02 2.5201808930116954e+01 9.7430257235326820e+00 1.2337093514393757e+01 0 0 0
85 1 1 6.7090531751524858e-03 1.1860144657603065e+01 9.6769957087927239e+00 2.7216702072237418e+00 0 0 0
86 1 1 1.1890226483249819e-03 2.5934633119196310e+01 9.9599462540503154e+00 2.4500605309851644e+00 0 0 0
87 1 1 1.5154954141551259e-02 3.9957527749207973e+00 2.0487565589608474e+00 1.2693915691523026e+01 0 0 0
88 1 1 3.2131194721050478e-02 1.8025609288811502e+01 1.4866504437335415e+00 1.2805264229145365e+01 0 0 0
89 1 1 4.0341050419983822e-02 5.2841500265061256e+00 9.2364312296050741e+00 2.2712894325927628e+00 0 0 0
90 1 1 8.8835743926726635e-03 1.9005327895345729e+01 9.3750651628777639e+00 2.7013059599778244e+00 0 0 0
91 1 1 1.5595236841297763e-02 1.1078918245117531e+01 2.6116660977631350e+00 1.2632887913909929e+01 0 0 0
92 1 1 2.9607296614734907e-02 2.5229068124174880e+01 2.8745891710252840e+00 1.2190940878741360e+01 0 0 0
93 1 1 1.6355489324245250e-02 1.2229141577877192e+01 2.7230301915996535e+00 2.8928635645921168e+00 0 0 0
94 1 1 1.4925885825179043e-02 2.6119432970502316e+01 2.6728676304045251e+00 2.3941778468041051e+00 0 0 0
95 1 1 1.6941523033054583e-02 4.2589656854926732e+00 9.1170483080353790e+00 1.2990438776924954e+01 0 0 0
96 1 1 1.5102203781392022e-02 1.8146872645920816e+01 8.8574436761431947e+00 1.2643294187362683e+01 0 0 0
97 1 1 -2.6593276429280344e-01 4.4722058223920280e+00 -3.5679001312673519e-01 3.6833238646971798e+00 0 1 0
98 1 1 -2.6650798014618149e-01 1.7861491459401805e+01 1.4026708614690064e-01 3.5072211117704271e+00 0 1 0
99 1 1 -2.5614548465864595e-01 1.1996375194761701e+01 1.1435300550436949e+01 1.4099759029669665e+01 0 -1 0
100 1 1 -2.7985603700277772e-01 2.6004917039644823e+01 1.1773224893771737e+01 1.3620624365572876e+01 0 -1 0
101 1 1 -2.8620589031214516e-01 1.1123014456511674e+01 1.1468889953258248e+01 4.2166364947527102e+00 0 -1 0
102 1 1 -2.6962139643900118e-01 2.4906541446660345e+01 1.2075013317935646e+01 3.3722285121419548e+00 0 -1 0
103 1 1 -2.7198482247364558e-01 4.8969247152322168e+00 1.9611978896253213e-02 1.4029383241531741e+01 0 1 0
104 1 1 -2.8179579967963209e-01 1.8634759609098463e+01 -6.9191999452839192e-01 1.3922933970310249e+01 0 1 0
105 1 1 -2.8283209303673706e-01 4.1674192492045785e+00 7.2856159085279293e+00 3.4713127770137842e+00 0 0 0
106 1 1 -2.7726840372289424e-01 1.8245957866544657e+01 7.2928669587001886e+00 3.8591871663402428e+00 0 0 0
107 1 1 -2.6980593492457039e-01 1.1933702631570904e+01 4.3843875684779059e+00 1.4336409947462897e+01 0 0 0
108 1 1 -2.7144612016640252e-01 2.5924554855328338e+01 4.6420538951906511e+00 1.3932142453464719e+01 0 0 0
109 1 1 -2.7003794675101023e-01 1.1545705920268173e+01 4.9006177297363775e+00 4.0573794210222864e+00 0 0 0
110 1 1 -2.6709672096412690e-01 2.5197240842676809e+01 4.8732607491113518e+00 3.3916721298270107e+00 0 0 0
111 1 1 -2.8837820005602871e-01 4.6709086856397333e+00 7.1356507956876554e+00 1.4340393446437114e+01 0 0 0
112 1 1 -2.7974503811879359e-01 1.8804903487695643e+01 6.7366238315154350e+00 1.3784797622745558e+01 0 0 0
113 1 1 9.5894376530747477e-02 9.2684900846968734e+00 3.7505869196665809e-01 1.7128914581381000e+01 0 0 0
114 1 1 1.0118074230883196e-01 2.3254284899152466e+01 3.1982951797503523e-01 1.7062467749996152e+01 0 0 0
115 1 1 9.6038106256070607e-02 7.1712087018362656e+00 1.1471928468817204e+01 6.8914766727900103e+00 0 0 0
116 1 1 1.0251418263541545e-01 2.0881424365740202e+01 1.1526970181511786e+01 6.7526149549230263e+00 0 0 0
117 1 1 9.3615280003131338e-02 2.2354320695259586e+00 1.1524000447433071e+01 1.7371705251243991e+01 0 0 0
118 1 1 1.0152280882446323e-01 1.6317840193203274e+01 1.1113138120089953e+01 1.7016210135168304e+01 0 0 0
119 1 1 1.0067719962852775e-01 1.3910061539863870e+01 4.2637980881728099e-01 7.1188388155918858e+00 0 0 0
120 1 1 1.0913508561668030e-01 2.7764704686182249e+01 4.7178321745151863e-01 6.7147306082913394e+00 0 0 0
121 1 1 9.6024039691441090e-02 9.3278123679064109e+00 7.5085481038124415e+00 1.7154091232657038e+01 0 0 0
122 1 1 8.8227584311457552e-02 2.3096154348530444e+01 7.4661918618568022e+00 1.7127040256190103e+01 0 0 0
123 1 1 1.0254652293527573e-01 6.8716198304508431e+00 4.2070753158460255e+00 6.8113657525792277e+00 0 0 0
124 1 1 1.0082583551904717e-01 2.0603441876556897e+01 4.1149869333578115e+00 6.5634551717629108e+00 0 0 0
125 1 1 8.9990483772153046e-02 2.1721148309307043e+00 4.3119981241865064e+00 1.6955098757976444e+01 0 0 0
126 1 1 1.0292758023988201e-01 1.6255555046510356e+01 3.9053126680294445e+00 1.6961097578202814e+01 0 0 0
127 1 1 7.3526092826279976e-02 1.4217855915026668e+01 7.6413862397226362e+00 7.3896881493393618e+00 0 0 0
128 1 1 1.0962721242075329e-01 2.7778503592264773e+01 7.7235966848212856e+00 6.4978922813383670e+00 0 0 0
129 1 1 1.2234237095601799e-02 1.0484578745266459e+01 1.0582878794989412e+00 1.7587564009615392e+01 0 0 0
130 1 1 1.8149437798301277e-02 2.4510747378320907e+01 8.9820797985045209e-01 1.7419742435010871e+01 0 0 0
131 1 1 2.7138024352642093e-02 5.8522924524515005e+00 1.0895499899802790e+01 7.0535934339597475e+00 0 0 0
132 1 1 2.3083941008037984e-02 1.9650238198040810e+01 1.1000664170368019e+01 7.2970533468161971e+00 0 0 0
133 1 1 3.2157674142151642e-02 3.4767257129321782e+00 1.0857471786497459e+01 1.7672560656799753e+01 0 0 0
134 1 1 4.8690878334804975e-03 1.7624138272859788e+01 1.0535577929083278e+01 1.7317988580406574e+01 0 0 0
135 1 1 3.5169898393484278e-02 1.2608320530282180e+01 1.0022597590245335e+00 7.3266100059472121e+00 0 0 0
136 1 1 7.6800288219554258e-03 2.6427032758346154e+01 8.9818257985581695e-01 6.9319038269400499e+00 0 0 0
137 1 1 2.6969194644384315e-02 1.0646344416641066e+01 7.9903178986438990e+00 1.7302261177180885e+01 0 0 0
138 1 1 2.0431916919877401e-02 2.4416481141047431e+01 8.0471585136734909e+00 1.7309018722339072e+01 0 0 0
139 1 1 2.5934838833907164e-02 5.6111317651822130e+00 3.6357044730611632e+00 7.2256989425914124e+00 0 0 0
140 1 1 2.1101095100049101e-02 1.9550711848086781e+01 3.3845366099188396e+00 7.2094390940656714e+00 0 0 0
141 1 1 1.2595316735046266e-02 3.3737126456135842e+00 3.6224335820312792e+00 1.7256852480247179e+01 0 0 0
142 1 1 1.1622863548272709e-02 1.7607100255358262e+01 3.4135632105532743e+00 1.7212994278515712e+01 0 0 0
143 1 1 1.0304140412631901e-02 1.2911467051030241e+01 8.2051347768375358e+00 7.3383616562304068e+00 0 0 0
144 1 1 1.2497870341134983e-02 2.6602743736383378e+01 8.2988977569136289e+00 7.0368417549725493e+00 0 0 0
145 1 1 -1.4694935728681097e-02 1.1277929989168374e+01 2.9309698225756931e-01 1.8484669674231807e+01 0 0 0
146 1 1 -2.1857326599047586e-02 2.5324237824693732e+01 1.6571997717559794e-01 1.8317616253971007e+01 0 0 0
147 1 1 -3.5842895527001019e-02 5.0728866108909090e+00 1.1719935487577828e+01 7.8862815366043080e+00 0 0 0
148 1 1 -2.2191204930464781e-02 1.8995975574155132e+01 1.1794824230725744e+01 8.2654256686214556e+00 0 0 0
149 1 1 -1.9636402058132038e-02 4.3481758414982741e+00 1.1498844571090128e+01 1.8595485347846136e+01 0 0 0
150 1 1 -2.4516856238956143e-02 1.8423922116665555e+01 1.1230560420900442e+01 1.8283759261585363e+01 0 0 0
151 1 1 -2.7752138085292925e-02 1.1728395242435461e+01 2.1151945908191938e-01 8.1359731111332216e+00 0 0 0
152 1 1 -3.9695700773732925e-02 2.5559220258816385e+01 -1.0487946458395814e-01 7.5338491041373477e+00 0 0 0
153 1 1 -3.6801351745813365e-02 1.1479173051289024e+01 7.1699611359726978e+00 1.8101550309415313e+01 0 0 0
154 1 1 -3.4966474936945428e-02 2.5260990496746803e+01 7.3079474208472606e+00 1.8187663673885869e+01 0 0 0
155 1 1 -2.4657092130696522e-02 4.8291731509485603e+00 4.4089259030385355e+00 8.0624190978128123e+00 0 0 0
156 1 1 -9.1741571398074317e-03 1.8839436462784985e+01 3.9938142587117094e+00 8.2767756924724072e+00 0 0 0
157 1 1 -2.4783561949042549e-02 4.2074038074203486e+00 4.1975499832347651e+00 1.8312207391743428e+01 0 0 0
158 1 1 -2.7122927138834581e-02 1.8380991577301781e+01 4.2653642761956938e+00 1.8065081555807804e+01 0 0 0
159 1 1 -4.8419726379181564e-02 1.1907011352515289e+01 7.3368202064740062e+00 7.8795554112349686e+00 0 0 0
160 1 1 -3.1965513011288860e-02 2.5828078772709478e+01 7.3378064537991934e+00 7.7295381143445674e+00 0 0 0
161 1 1 3.6884347316200723e-02 1.0991301867550005e+01 -1.0831807939131235e+00 1.8783228000307467e+01 0 0 0
162 1 1 3.7563060210182651e-02 2.5047812274556524e+01 -1.1460829532912478e+00 1.8758440872910612e+01 0 0 0
163 1 1 5.2764755804741742e-02 5.5030422986907883e+00 1.2975881736950637e+01 8.4294260434309987e+00 0 0 0
164 1 1 4.7240136188002782e-02 1.9627435523465639e+01 1.2953334080023957e+01 8.8498615508292460e+00 0 0 0
165 1 1 4.7018915121185639e-02 4.1866811143894394e+00 1.2874380436636159e+01 1.8956253509868308e+01 0 0 0
166 1 1 3.6969376468689551e-02 1.8009535187734897e+01 1.2518762796143442e+01 1.8778645557103609e+01 0 0 0
167 1 1 4.2216820564749749e-02 1.1867353651740505e+01 -1.1343448248677321e+00 8.5465397990403638e+00 0 0 0
168 1 1 5.4090862396209430e-02 2.6017627605479611e+01 -1.3228161139577053e+00 8.1132907093296076e+00 0 0 0
169 1 1 4.9010599878890518e-02 1.1043806263262800e+01 5.9830652093325449e+00 1.8814651690474758e+01 0 0 0
170 1 1 4.0386371253335385e-02 2.4899486957341811e+01 6.0160920979448518e+00 1.8681163312526678e+01 0 0 0
171 1 1 4.2886318702192068e-02 5.2428756068402143e+00 5.6941077235117419e+00 8.5793929264884596e+00 0 0 0
172 1 1 5.0909816142635816e-02 1.9003499058539109e+01 5.3615238929231106e+00 8.6471885575664871e+00 0 0 0
173 1 1 3.5904338419089785e-02 4.0056245102970784e+00 5.5112990532928725e+00 1.8690081422077920e+01 0 0 0
174 1 1 3.3543932650762040e-02 1.7983770726402764e+01 5.5968164262668303e+00 1.8473611926998842e+01 0 0 0
175 1 1 3.0080755643277449e-02 1.2236879822974352e+01 6.0788040082489907e+00 8.4612939451774647e+00 0 0 0
176 1 1 5.3838166634910381e-02 2.6204989552457757e+01 6.0147289046063115e+00 8.0493742221232480e+00 0 0 0
177 1 1 -3.7871825806280242e-02 1.0102923911872423e+01 1.2801588156506739e+01 1.8087316421735821e+01 0 -1 0
178 1 1 -3.1094615268850809e-02 2.4111799284350344e+01 1.2761224432214281e+01 1.8167544937287911e+01 0 -1 0
179 1 1 -4.2212451864091186e-02 6.5242323893958938e+00 -9.2097865066957119e-01 7.9502483491275235e+00 0 1 0
180 1 1 -3.2813997566575860e-02 2.0635731287762638e+01 -1.0370105592860772e+00 8.2255690776650194e+00 0 1 0
181 1 1 -3.3932696091353534e-02 2.8564140770507431e+00 -1.0039221400124512e+00 1.8421913623180245e+01 0 1 0
182 1 1 -3.1317513531659430e-02 1.6689481135334137e+01 -1.3325749536413882e+00 1.8169975536357132e+01 0 1 0
183 1 1 -1.8859257788131679e-02 1.3387868868888861e+01 1.2876376576514073e+01 8.1844049583319158e+00 0 -1 0
184 1 1 -2.1559721431981753e-02 2.7579713263604990e+01 1.2804324640550160e+01 7.7764988483517650e+00 0 -1 0
185 1 1 -2.9919099350230443e-02 9.7140247003799640e+00 5.5150748201590503e+00 1.8488905833292257e+01 0 0 0
186 1 1 -4.4217470158578770e-02 2.3610425543251694e+01 5.4953844110981143e+00 1.8318412195331913e+01 0 0 0
187 1 1 -3.5036615478897574e-02 6.5096049539023966e+00 6.1393758377907792e+00 8.1261807898449749e+00 0 0 0
188 1 1 -3.4186845919800479e-02 2.0065889169333584e+01 6.0393794643246226e+00 7.9287307174491222e+00 0 0 0
189 1 1 -3.1030451413008132e-02 2.9516750506034022e+00 6.2851654787498497e+00 1.8091957753916397e+01 0 0 0
190 1 1 -5.0073156119197701e-02 1.6740641129155744e+01 6.0189632454860176e+00 1.7957547636004495e+01 0 0 0
191 1 1 -4.0467204642860848e-02 1.3598203158753012e+01 5.6291601217804548e+00 8.4196155970771311e+00 0 0 0
192 1 1 -4.1118301344514524e-02 2.7362113804499408e+01 5.5685908769437100e+00 7.3466399482545315e+00 0 0 0
193 1 1 1.1578702499855750e-02 8.8669824728035547e+00 -9.4905944051553004e-01 1.7398435561399538e+01 0 0 0
194 1 1 3.2501953915757831e-02 2.2965280939026410e+01 -1.0375613616409047e+00 1.7326413122756051e+01 0 0 0
195 1 1 7.8148390471040816e-03 7.6046572522510232e+00 1.2780555146832160e+01 7.2125499691104755e+00 0 0 0
196 1 1 3.9857111390239321e-02 2.1481777508806172e+01 1.2758567205657261e+01 7.1914566170830687e+00 0 0 0
197 1 1 1.4834398259801842e-02 1.5895412232095076e+01 1.2408321953713585e+01 1.7424097795743627e+01 0 0 0
198 1 1 1.3796605788714923e-02 1.9533430606348214e+00 1.2852874275710697e+01 1.7726977249675578e+01 1 0 0
199 1 1 2.2537536319783030e-02 2.8244582782478357e+01 -8.4956929261580172e-01 7.0012074997112705e+00 -1 0 0
200 1 1 3.1396851544653728e-02 1.4211826155136013e+01 -9.4700053247843519e-01 7.4938520203834740e+00 0 0 0
201 1 1 1.9448026372646920e-02 8.8548890898481574e+00 6.2422570033251867e+00 1.7639863393591458e+01 0 0 0
202 1 1 -2.3067273971969990e-03 2.2702090756971185e+01 6.1598884844147168e+00 1.7421492470919585e+01 0 0 0
203 1 1 1.5488910150616989e-02 7.4116835253680762e+00 5.4298139432408039e+00 7.2381374394500178e+00 0 0 0
204 1 1 2.4542366736914692e-02 2.0958264637627373e+01 5.4463194135778270e+00 6.9453604013256687e+00 0 0 0
205 1 1 1.0143453824790972e-02 1.5809513245324624e+01 5.2570846496285810e+00 1.7189722844836233e+01 0 0 0
206 1 1 1.2796199188218893e-03 1.9681679942922559e+00 5.6934344647200659e+00 1.7258744300025946e+01 1 0 0
207 1 1 1.5225195305388694e-02 2.8213268159694763e+01 6.3532494346106265e+00 6.5986034227072210e+00 -1 0 0
208 1 1 4.2900304112840279e-03 1.4603234471170573e+01 6.2880727015066533e+00 7.6742233041185637e+00 0 0 0
209 1 1 -2.8911336306828805e-01 8.3269178236447203e+00 1.2750492356864291e+00 1.6286419987081331e+01 0 0 0
210 1 1 -2.7932072403069202e-01 2.2187878014441676e+01 1.1941216087394180e+00 1.6323325875051783e+01 0 0 0
211 1 1 -2.7299383295395985e-01 8.2022223804358649e+00 1.0542311972874021e+01 6.1631559424060249e+00 0 0 0
212 1 1 -2.7161674248961132e-01 2.1682816182054140e+01 1.0627627720580435e+01 5.7594019081573391e+00 0 0 0
213 1 1 -2.7591646613231080e-01 1.5255558224079692e+01 1.0134949299108243e+01 1.6443837825957715e+01 0 0 0
214 1 1 -2.8426835989905819e-01 2.9083719010205552e+01 1.0739212295219335e+01 1.6592595200494603e+01 0 0 0
215 1 1 -2.7927471897758105e-01 2.8617151122780360e+01 1.3999461637619119e+00 5.8224143900173102e+00 -1 0 0
216 1 1 -2.9464274789702372e-01 1.4998017366660221e+01 1.0993687337714162e+00 6.2773154100527915e+00 0 0 0
217 1 1 -2.8295243695418804e-01 8.3690343528834568e+00 8.4906101582028022e+00 1.6450514204530553e+01 0 0 0
218 1 1 -2.7803049615547076e-01 2.2069973566725569e+01 8.4644507183595827e+00 1.6531762251928232e+01 0 0 0
219 1 1 -2.7120706463871797e-01 7.8264151712574259e+00 3.2385566135214496e+00 6.0233277571694321e+00 0 0 0
220 1 1 -2.7564214689840488e-01 2.1558691580698465e+01 3.3763129422688021e+00 5.5811860102916002e+00 0 0 0
221 1 1 -2.7878498270649749e-01 1.5243826398122660e+01 2.9573951023959149e+00 1.6316594830243968e+01 0 0 0
222 1 1 -2.7173509898482279e-01 2.9027454593698010e+01 3.5606756384889335e+00 1.6077947674435190e+01 0 0 0
223 1 1 -2.8724912982458439e-01 2.8677619287442532e+01 8.6801158196639854e+00 5.6513666818326485e+00 -1 0 0
224 1 1 -2.8721657376106602e-01 1.5343154731404473e+01 8.6187155969291567e+00 6.9197522520185357e+00 0 0 0
225 1 2 3.7491481720748643e-01 7.3847771598226597e+00 1.3135466758585206e+01 3.5875593729343604e+00 0 0 0
226 1 2 3.6394456041856904e-01 2.0655040737772488e+01 -1.0840414734227799e+00 3.4481959222907910e+00 0 1 0
227 1 2 3.7896521696102770e-01 9.2432508065165653e+00 -1.4195419415936448e+00 1.3866125915621776e+01 0 0 0
228 1 2 3.7434687698962127e-01 2.3079961701793270e+01 1.2887607763226885e+01 1.3456303198437666e+01 0 -1 0
229 1 2 3.7095030394587436e-01 1.3889281767752664e+01 1.2819511284538983e+01 3.8695462283017319e+00 0 -1 0
230 1 2 3.8452514392007325e-01 2.7541687335681928e+01 -1.1921217701308477e+00 3.3381382362037257e+00 0 0 0
231 1 2 3.5390533367896759e-01 2.5456933374985584e+00 1.2988594970574365e+01 1.3230278032142300e+01 0 0 0
232 1 2 4.2185674441509302e-01 1.5992306336706150e+01 1.2617965723647497e+01 1.3525604136465800e+01 0 0 0
233 1 2 3.6068812163868830e-01 6.8618105917576644e+00 5.8747898326535282e+00 3.5098557757286737e+00 0 0 0
234 1 2 3.6504901984054844e-01 2.0965794892578955e+01 5.9924753089071015e+00 3.4081787446357517e+00 0 0 0
235 1 2 3.8160373910313899e-01 9.5823521899267998e+00 6.1275206718453283e+00 1.3520584323494397e+01 0 0 0
236 1 2 3.1054620689740159e-01 2.3485251967924611e+01 6.1559540337966441e+00 1.3397164646684244e+01 0 0 0
237 1 2 3.6686383149911994e-01 1.4078701008420571e+01 6.1701254284986353e+00 3.1744519410798024e+00 0 0 0
238 1 2 3.8467176071933723e-01 2.7874908424033794e+01 5.9872989623862569e+00 3.3291353733214164e+00 0 0 0
239 1 2 3.7328335333208496e-01 2.0168519642298417e+00 5.8628560234711973e+00 1.3356175510471582e+01 0 0 0
240 1 2 3.6418876143931811e-01 1.5937823488615450e+01 5.7615355328301705e+00 1.3512741397879621e+01 0 0 0
241 1 2 3.6236931849261039e-01 8.4410728416172685e+00 2.7159115218739331e+00 6.8462595882447530e-01 0 0 0
242 1 2 3.5067318035777428e-01 2.2265786216508928e+01 2.7837947183849492e+00 6.3650560244830834e-01 0 0 0
243 1 2 3.4293214140921324e-01 7.6330288695085660e+00 9.8861178157755916e+00 1.0325770717961239e+01 0 0 0
244 1 2 3.6276449535101202e-01 2.2116445194891103e+01 9.1767892733677030e+00 1.0139927602235662e+01 0 0 0
245 1 2 3.7629059608359527e-01 1.4807671562455448e+01 9.4785530313198976e+00 1.1598317444576309e-01 0 0 0
246 1 2 3.4338310112165610e-01 1.3247862497272815e+00 9.2616402869480723e+00 4.5909961310509850e-01 1 0 0
247 1 2 3.7413602123798545e-01 1.2317807650536168e+00 2.2604259625149501e+00 9.9919622742055374e+00 0 0 0
248 1 2 3.5619365189155600e-01 1.4983627126266180e+01 2.1089559636840742e+00 1.0387866291091603e+01 0 0 0
249 1 2 3.5288214166174592e-01 8.4305617149995626e+00 9.4477933592974708e+00 8.3842108281966643e-02 0 0 0
250 1 2 3.3427173647032787e-01 2.2261750770273281e+01 9.9852782901682353e+00 5.0145080979186452e-01 0 0 0
251 1 2 3.4363433375259012e-01 7.9011199294780363e+00 2.5181830399726368e+00 1.0356121164735992e+01 0 0 0
252 1 2 3.6683917561961515e-01 2.1893677929678699e+01 2.5839100806664255e+00 1.0148643814626661e+01 0 0 0
253 1 2 3.5785247131088693e-01 1.5187103303212062e+01 1.9906076829914570e+00 4.2634421746392598e-01 0 0 0
254 1 2 3.5775404515161829e-01 1.4986017807897369e+00 2.0422713340565877e+00 3.5867148565297335e-01 1 0 0
255 1 2 3.3471854711220178e-01 1.7403351104876517e+00 9.7442093686150137e+00 1.0109170014372740e+01 0 0 0
256 1 2 3.4076144600155966e-01 1.4955994195848918e+01 9.9341960985183277e+00 1.0711581852894204e+01 0 0 0
257 1 2 4.0152705741633443e-01 3.9518519787845392e+00 2.6468242371833934e+00 3.1196582949674498e+00 0 0 0
258 1 2 3.8914405993893686e-01 1.7603016284274890e+01 3.0875863190001933e+00 2.8394071225902615e+00 0 0 0
259 1 2 3.6875373624817087e-01 1.2103738749865766e+01 8.7329796231058019e+00 1.2752365925140856e+01 0 0 0
260 1 2 3.8422765253920532e-01 2.6543908949171151e+01 8.9812517017000602e+00 1.2580419972661177e+01 0 0 0
261 1 2 3.7914190218792632e-01 1.0632108138727677e+01 8.8336557553415780e+00 3.0162044507776296e+00 0 0 0
262 1 2 3.6325535663827885e-01 2.4837681046504276e+01 9.1362018863904026e+00 3.0898774751185640e+00 0 0 0
263 1 2 3.6865229816726902e-01 5.2530764786817965e+00 2.8805246792764869e+00 1.2810279491395969e+01 0 0 0
264 1 2 3.8080364184380344e-01 1.9302388946244019e+01 2.1768365968297543e+00 1.3167089597631557e+01 0 0 0
265 1 2 3.9271025466087778e-01 4.1407729619685076e+00 1.0223968498116331e+01 2.6076785553600903e+00 0 0 0
266 1 2 3.6785501286577849e-01 1.7742523886473489e+01 1.0114252912850610e+01 2.9401639141992906e+00 0 0 0
267 1 2 3.7724218877756849e-01 1.2317490912481530e+01 1.7487354693359092e+00 1.2813368767749969e+01 0 0 0
268 1 2 3.6644375223849684e-01 2.6403955743792466e+01 1.9708374402299875e+00 1.2459915815708872e+01 0 0 0
269 1 2 3.7638089708734895e-01 1.0913283341062314e+01 2.0864096415753726e+00 3.3295559540644848e+00 0 0 0
270 1 2 3.8527797510686407e-01 2.4823976626269499e+01 1.9074669980093963e+00 2.7074633058600810e+00 0 0 0
271 1 2 3.9072236745799677e-01 5.5405233558597908e+00 9.7889647541938984e+00 1.3495407914330663e+01 0 0 0
272 1 2 3.7464244242105066e-01 1.9513916723204730e+01 9.4774361416802257e+00 1.2935532535964642e+01 0 0 0
273 1 2 3.6402441295963717e-01 1.0942512392028256e+01 2.3832066551850097e+00 1.7098212133486900e+01 0 0 0
274 1 2 3.6367168887631779e-01 2.5046107154246410e+01 2.2332126407356077e+00 1.6878125301046257e+01 0 0 0
275 1 2 3.7066016541195368e-01 5.2647700063090301e+00 9.6717864205281892e+00 6.3264255037305235e+00 0 0 0
276 1 2 3.8562274233555621e-01 1.9068559166447944e+01 9.6444355420952412e+00 6.9844212171001629e+00 0 0 0
277 1 2 3.5753174256881509e-01 3.9101107124868371e+00 9.4820801330773605e+00 1.7208381321771611e+01 0 0 0
278 1 2 3.8688256959205380e-01 1.8165998497899121e+01 9.3151813974470734e+00 1.6659545789885492e+01 0 0 0