LAMMPS data file via write_data, version 15 Apr 2020, timestep = 0

3456 atoms
8 atom types

0.0000000000000000e+00 1.0000000000000000e+02 xlo xhi
0.0000000000000000e+00 1.0000000000000000e+02 ylo yhi
0.0000000000000000e+00 1.0000000000000000e+02 zlo zhi

Masses

1 1.00794
2 1
3 1
4 1
5 1
6 12.0107
7 14.0067
8 15.9994

Atoms # full

551 1 8 -2.0707849237201739e-01 6.5380783038232892e+01 6.8350011906519072e+01 2.4628831249966318e+01 0 0 0
1127 1 8 -2.2422050187153558e-01 6.5369049563441166e+01 8.0917224018929488e+01 2.4637978803587028e+01 0 0 0
395 1 8 -2.1738287629481140e-01 5.4716387054643256e+01 5.5851777136499933e+01 3.0338715599223477e+01 0 0 0
539 1 8 -2.1484411907490059e-01 6.3189731402415930e+01 5.5852175585948785e+01 2.7775797661705660e+01 0 0 0
252 1 8 -2.0506356242693502e-01 4.6233429850957549e+01 5.7047286057458088e+01 3.1011149657144646e+01 0 0 0
361 1 6 3.5215767251172522e-02 5.4248393172052481e+01 5.9536661698205414e+01 2.9903933054106183e+01 0 0 0
362 1 1 2.2760298322929334e-01 5.4481701800696150e+01 5.9437824352460495e+01 2.8790952936826905e+01 0 0 0
363 1 7 -1.5703674378501059e-01 5.5481570919498971e+01 6.0061518333327001e+01 3.0615647903644000e+01 0 0 0
375 1 7 -1.3472077258444223e-01 5.3259070856714146e+01 6.1629910919952529e+01 3.1136263121424495e+01 0 0 0
376 1 7 3.5375746192903484e-01 5.4344278984924287e+01 6.2614135054140299e+01 3.0726509352706181e+01 0 0 0
379 1 6 5.6156429861534018e-02 5.3017418236268554e+01 6.0458376646176752e+01 3.0188754182592945e+01 0 0 0
380 1 1 2.2587775555113804e-01 5.2593582661202277e+01 6.0854817973297578e+01 2.9209223819576280e+01 0 0 0
381 1 7 -1.4478847848780460e-01 5.1913281559099133e+01 5.9780356238080230e+01 3.1010460179314375e+01 0 0 0
382 1 7 3.2475297909627282e-01 5.1283346164020209e+01 5.8555293475114070e+01 3.0370876132160291e+01 0 0 0
383 1 8 -1.8247862882576169e-01 5.0724382497238942e+01 5.7676355508710778e+01 3.1114313310915211e+01 0 0 0
384 1 8 -2.2321664966352883e-01 5.1258919409282399e+01 5.8476867422784707e+01 2.9091663909763945e+01 0 0 0
393 1 7 -1.7315057391681138e-01 5.3960178439624805e+01 5.8155687144585187e+01 3.0478180112078608e+01 0 0 0
394 1 7 2.9490813882068390e-01 5.4576026289310079e+01 5.6967290047106530e+01 2.9721754084790796e+01 0 0 0
396 1 8 -2.0613185953440838e-01 5.4706500741429906e+01 5.7046714920650139e+01 2.8449539061038582e+01 0 0 0
364 1 7 3.1991495617689164e-01 5.6838045344792725e+01 5.9794120879509627e+01 2.9943581138128444e+01 0 0 0
365 1 8 -2.6781506607842337e-01 5.7883192287189686e+01 5.9677600027681450e+01 3.0677608589025553e+01 0 0 0
366 1 8 -2.2464872792985474e-01 5.6931626865256952e+01 5.9938541713402991e+01 2.8673068195885637e+01 0 0 0
517 1 6 8.0115168156665528e-02 6.1833846943717440e+01 6.1022189319196990e+01 2.9952506516845940e+01 0 0 0
518 1 1 2.7001667595472173e-01 6.1489851262734589e+01 6.1785103122319363e+01 3.0722656954251864e+01 0 0 0
519 1 7 -1.3358109736680121e-01 6.1730883575729898e+01 6.1631077794173521e+01 2.8573670191547929e+01 0 0 0
523 1 6 5.6684713659261199e-02 6.1488964961707381e+01 6.0459834177039333e+01 2.7626565024168819e+01 0 0 0
524 1 1 2.2647406482285481e-01 6.1064520654113252e+01 6.0855559958080498e+01 2.6647247160369226e+01 0 0 0
525 1 7 -1.4162426402947509e-01 6.0384885881318674e+01 5.9780474463999468e+01 2.8448874559498879e+01 0 0 0
526 1 7 3.2500904436960265e-01 5.9755705725104235e+01 5.8554506546206625e+01 2.7808549090950006e+01 0 0 0
527 1 8 -1.8053301697990581e-01 5.9196352734848595e+01 5.7675319843355283e+01 2.8552150323287130e+01 0 0 0
528 1 8 -2.1983252809986262e-01 5.9732038646564028e+01 5.8476117956416111e+01 2.6528905369783772e+01 0 0 0
529 1 6 7.9437849073780861e-02 6.0876222205651743e+01 5.9727713295963731e+01 2.9869879895995176e+01 0 0 0
530 1 1 2.8622205125875705e-01 5.9977511035197864e+01 5.9780219398207251e+01 3.0569177245553721e+01 0 0 0
531 1 7 -1.6696485300389458e-01 6.1686680515950911e+01 5.8529396830523062e+01 3.0288495658239800e+01 0 0 0
532 1 7 3.2785562567617038e-01 6.0925848938290891e+01 5.7316461327529190e+01 3.0848098421033853e+01 0 0 0
533 1 8 -2.0520795008745635e-01 6.1459819712404332e+01 5.6157271994629326e+01 3.0752412533017353e+01 0 0 0
505 1 6 3.3471900348894926e-02 6.2718919509445648e+01 5.9537875788338908e+01 2.7342394946638343e+01 0 0 0
506 1 1 2.2383690175722845e-01 6.2952031351842592e+01 5.9437601649123131e+01 2.6229340765138399e+01 0 0 0
507 1 7 -1.5845754572961213e-01 6.3950877969475982e+01 6.0062297471679841e+01 2.8053822674753810e+01 0 0 0
508 1 7 2.9216089257431466e-01 6.5307088904396920e+01 5.9795181157508161e+01 2.7381584477244559e+01 0 0 0
509 1 8 -1.9163503068217949e-01 6.6351217034634132e+01 5.9666853953767124e+01 2.8114277780290724e+01 0 0 0
510 1 8 -2.0317070886623881e-01 6.5397864833377326e+01 5.9932906397886370e+01 2.6111064158068793e+01 0 0 0
511 1 6 5.0902803005243052e-02 6.3834056720942868e+01 5.9498610297103234e+01 2.9476324476921857e+01 0 0 0
512 1 1 2.2594792832572833e-01 6.4860881039265067e+01 5.9225990680482830e+01 2.9891425265670570e+01 0 0 0
513 1 7 -1.6017658352478453e-01 6.3214311092641111e+01 6.0571790040143973e+01 3.0328625497987481e+01 0 0 0
520 1 7 3.5300345116751386e-01 6.2816682861145310e+01 6.2614842228040104e+01 2.8164325585364953e+01 0 0 0
535 1 6 4.4884178130288610e-02 6.2858419063382087e+01 5.8253613114862574e+01 2.9386334455186212e+01 0 0 0
536 1 1 2.1831335936849883e-01 6.3349250953919558e+01 5.7273762638118441e+01 2.9703734223741602e+01 0 0 0
537 1 7 -1.6710186448805767e-01 6.2430831094332774e+01 5.8155630472237966e+01 2.7919620273541476e+01 0 0 0
538 1 7 2.9223389079074213e-01 6.3045514543940214e+01 5.6967845160946808e+01 2.7160798563737245e+01 0 0 0
540 1 8 -2.1919864410910500e-01 6.3181098244892304e+01 5.7049756305406348e+01 2.5889413314146218e+01 0 0 0
575 1 8 -2.3428244310819477e-01 6.5617849882284986e+01 6.2121831107808049e+01 2.9066295390563077e+01 0 0 0
262 1 7 3.2199793798684945e-01 4.7891555874399423e+01 6.7399791622503216e+01 3.0419419468072320e+01 0 0 0
263 1 8 -1.7877637583814807e-01 4.8429765873176009e+01 6.8351621122209608e+01 2.9753424992693258e+01 0 0 0
264 1 8 -2.0538213824373247e-01 4.6800463589505092e+01 6.6839318461067293e+01 3.0052911424470064e+01 0 0 0
280 1 7 3.2330574159760439e-01 5.0919286213147323e+01 6.3593993396067020e+01 3.1114216514165452e+01 0 0 0
282 1 8 -2.5547792678944137e-01 5.1930711893846748e+01 6.3806892273087861e+01 3.0358068669462959e+01 0 0 0
378 1 8 -3.1612713981958368e-01 5.4635214880273899e+01 6.2737014188180552e+01 2.9483693655929621e+01 0 0 0
401 1 8 -2.6880642774334029e-01 5.3957554788372057e+01 6.5992598184389692e+01 3.1283413993704066e+01 0 0 0
404 1 1 2.5110353711475475e-01 5.5453336488511347e+01 6.5495456329522682e+01 2.9511561902803258e+01 0 0 0
408 1 8 -2.0588440485352869e-01 5.5273686728196282e+01 6.6839579210332587e+01 2.7491629667280922e+01 0 0 0
971 1 8 -2.5848157486982770e-01 5.4691238468639881e+01 6.8401836708964780e+01 3.0327203800071018e+01 0 0 0
403 1 6 6.9939048661129266e-02 5.6482015736313365e+01 6.5772671281445341e+01 2.9925336258053104e+01 0 0 0
405 1 7 -1.7305750522732083e-01 5.7101229592740609e+01 6.6845026837536878e+01 2.9073150382712871e+01 0 0 0
406 1 7 3.2221337362529684e-01 5.6364848032969810e+01 6.7400026472554643e+01 2.7858185497903328e+01 0 0 0
407 1 8 -1.7853956370489688e-01 5.6903317240018438e+01 6.8351612212665856e+01 2.7191990661744889e+01 0 0 0
409 1 6 6.7293455846582459e-02 5.8485200815625305e+01 6.7292271490409661e+01 2.9445227054701295e+01 0 0 0
410 1 1 2.5172513536036473e-01 5.8829695043618734e+01 6.8050961662856835e+01 2.8669089832787279e+01 0 0 0
411 1 7 -1.4194390953550451e-01 5.8591655932161935e+01 6.7903446973209995e+01 3.0821876105969611e+01 0 0 0
417 1 7 -1.3779319094487430e-01 5.9933913480652173e+01 6.6052936085188463e+01 3.0951791783352899e+01 0 0 0
419 1 8 -2.6526711137872983e-01 6.1102698702222561e+01 6.3938844469853038e+01 3.0845168587767422e+01 0 0 0
421 1 6 6.5036890176946416e-02 5.9439486422575698e+01 6.6001840406329094e+01 2.9531338637858283e+01 0 0 0
422 1 1 2.6066617527888558e-01 6.0339232721467326e+01 6.6052808885288954e+01 2.8834206726384274e+01 0 0 0
423 1 7 -1.8239531791783736e-01 5.8629176463719268e+01 6.4803929089698116e+01 2.9112574957579511e+01 0 0 0
424 1 7 3.2494658223117218e-01 5.9392854313038697e+01 6.3593792097630967e+01 2.8552931075357915e+01 0 0 0
425 1 8 -2.6190093199532877e-01 5.8874931211614339e+01 6.2428289320704543e+01 2.8658278749950817e+01 0 0 0
426 1 8 -2.5445253180265187e-01 6.0403359274730505e+01 6.3807040472285038e+01 2.7795809447601023e+01 0 0 0
427 1 6 6.1117631310404860e-02 5.7457166464617877e+01 6.4526153820194637e+01 3.0012852485918870e+01 0 0 0
428 1 1 2.4666889186379284e-01 5.6968553014679600e+01 6.3544820267026772e+01 2.9693240493147339e+01 0 0 0
521 1 8 -2.5884887251115685e-01 6.3313355553211345e+01 6.3394684037650464e+01 2.9051350984435583e+01 0 0 0
522 1 8 -3.1758844242361195e-01 6.3107241072110945e+01 6.2736505378269001e+01 2.6921890383633553e+01 0 0 0
541 1 6 4.3136073599121326e-02 6.6065714614761873e+01 6.5811058118512733e+01 2.9495934377691444e+01 0 0 0
542 1 1 2.4723086362440799e-01 6.5831459097319296e+01 6.5709822967620852e+01 3.0610590045644543e+01 0 0 0
543 1 7 -1.4460242994174605e-01 6.4830598719122463e+01 6.6333946493992741e+01 2.8783842267005898e+01 0 0 0
544 1 7 3.4458888161562207e-01 6.3471089571353204e+01 6.6065160126388548e+01 2.9453690394990520e+01 0 0 0
545 1 8 -2.6968841666023768e-01 6.2424133621101987e+01 6.5991067633838711e+01 2.8715302074119812e+01 0 0 0
546 1 8 -1.8962433721222563e-01 6.3375597677262483e+01 6.6217236886248372e+01 3.0723783309452291e+01 0 0 0
547 1 6 6.8969252250506569e-02 6.4947240655167008e+01 6.5774847616376434e+01 2.7361729698893637e+01 0 0 0
548 1 1 2.5237850482324492e-01 6.3918642898471731e+01 6.5494808999528033e+01 2.6946852705440932e+01 0 0 0
549 1 7 -1.7397482788548757e-01 6.5569280239195280e+01 6.6847249337135906e+01 2.6511070441719429e+01 0 0 0
550 1 7 3.2449537823277519e-01 6.4835320820065959e+01 6.7402221468695572e+01 2.5295149360832880e+01 0 0 0
552 1 8 -2.0123154236631369e-01 6.3745521919276925e+01 6.6840413909919022e+01 2.4925885467002736e+01 0 0 0
553 1 6 5.7921062098875542e-02 6.6954389758668867e+01 6.7294062519893572e+01 2.6884353608937637e+01 0 0 0
554 1 1 2.1268853657452252e-01 6.7295804977250484e+01 6.8054810257454122e+01 2.6110162920148774e+01 0 0 0
555 1 7 -1.8246610982970066e-01 6.7063182704026133e+01 6.7903330789370813e+01 2.8261153614517077e+01 0 0 0
559 1 6 5.8896348165382459e-02 6.7296082136563697e+01 6.6733126787102819e+01 2.9209861414152023e+01 0 0 0
560 1 1 2.0966232296454945e-01 6.7716829150032595e+01 6.7125868855053341e+01 3.0193596390831026e+01 0 0 0
561 1 7 -1.9635774747003426e-01 6.8397827618587627e+01 6.6055382645586761e+01 2.8389724031968989e+01 0 0 0
565 1 6 5.6943362308182636e-02 6.7906721233544104e+01 6.6002900541320827e+01 2.6969841255710996e+01 0 0 0
566 1 1 2.0003099791371121e-01 6.8804574783840081e+01 6.6050993640316733e+01 2.6273009281890747e+01 0 0 0
567 1 7 -1.8946116340978758e-01 6.7098119966286632e+01 6.4803306419687999e+01 2.6546450921649061e+01 0 0 0
568 1 7 3.2044635125058774e-01 6.7870963802699009e+01 6.3594503442377672e+01 2.5992242619637537e+01 0 0 0
569 1 8 -1.7872147293453158e-01 6.7339962730326747e+01 6.2434225765161102e+01 2.6077678461555234e+01 0 0 0
570 1 8 -2.2389152894673608e-01 6.8883443833732500e+01 6.3817823854522850e+01 2.5241590976011334e+01 0 0 0
571 1 6 6.3891249410375980e-02 6.5928180726320520e+01 6.4522641473462826e+01 2.7450162783506137e+01 0 0 0
572 1 1 2.4697894705427206e-01 6.5437071581185961e+01 6.3539395341580814e+01 2.7131146799712713e+01 0 0 0
573 1 7 -1.4892578364767708e-01 6.6356537490063275e+01 6.4429973524099466e+01 2.8916802593798987e+01 0 0 0
574 1 7 3.3260561459438059e-01 6.5744763116389592e+01 6.3241831446718535e+01 2.9677045616195482e+01 0 0 0
576 1 8 -1.9840019341682991e-01 6.5643496806880833e+01 6.3320948794145345e+01 3.0952027704505475e+01 0 0 0
1115 1 8 -2.5352465077535524e-01 6.3163753123459912e+01 6.8402226282500990e+01 2.7765382703054705e+01 0 0 0
562 1 7 3.1222278485477845e-01 6.9022003032686754e+01 6.4824329710238345e+01 2.9027348595750187e+01 0 0 0
563 1 8 -1.8779115261688878e-01 6.9603910452707382e+01 6.3961974512534873e+01 2.8280811312123802e+01 0 0 0
564 1 8 -2.2811480961484643e-01 6.9064381079953691e+01 6.4755254864197695e+01 3.0307267757605970e+01 0 0 0
828 1 8 -2.0151841167520390e-01 4.6206214861602199e+01 6.9609410601952305e+01 3.1008588798593539e+01 0 0 0
937 1 6 4.1490003093726878e-02 5.4250983600060067e+01 7.2091006085581085e+01 2.9906228091308193e+01 0 0 0
938 1 1 2.3484717930230029e-01 5.4484936018107412e+01 7.1989717950485627e+01 2.8792360473733364e+01 0 0 0
939 1 7 -1.5007984833804777e-01 5.5485735546962623e+01 7.2610846815601462e+01 3.0617866742049483e+01 0 0 0
951 1 7 -1.3550332594506664e-01 5.3260245046113639e+01 7.4182828971039896e+01 3.1136930800267731e+01 0 0 0
955 1 6 5.3805388833373512e-02 5.3020270751803622e+01 7.3013603862454644e+01 3.0189778869621620e+01 0 0 0
956 1 1 2.2558085169390557e-01 5.2595104953181689e+01 7.3409484137478074e+01 2.9209630590867967e+01 0 0 0
957 1 7 -1.4644952080421933e-01 5.1916054376920187e+01 7.2335280533464115e+01 3.1010536864582011e+01 0 0 0
958 1 7 3.4357611562849844e-01 5.1284418404777121e+01 7.1111164685008376e+01 3.0370535893624950e+01 0 0 0
959 1 8 -2.6378941985018112e-01 5.0754364294605537e+01 7.0217201401098109e+01 3.1116326807258083e+01 0 0 0
960 1 8 -2.3144645122270829e-01 5.1260642697082979e+01 7.1030852609578531e+01 2.9091255126752170e+01 0 0 0
969 1 7 -1.7293228116780737e-01 5.3961514574409620e+01 7.0711806325515028e+01 3.0483847605604865e+01 0 0 0
970 1 7 3.1836398997651111e-01 5.4575257133610513e+01 6.9526352836552192e+01 2.9721851785090291e+01 0 0 0
972 1 8 -2.0213632063810399e-01 5.4679148368454477e+01 6.9609303361128426e+01 2.8446886517674901e+01 0 0 0
412 1 7 3.7285953036022645e-01 5.7507854213396072e+01 6.8886873804062233e+01 3.1235815588059786e+01 0 0 0
413 1 8 -2.6428941452584992e-01 5.7008283330900284e+01 6.9670691488727215e+01 3.0353805242897671e+01 0 0 0
940 1 7 3.4175582111032121e-01 5.6843411954754757e+01 7.2344960463219465e+01 2.9945088627496109e+01 0 0 0
941 1 8 -2.4598907482700960e-01 5.7892852273482333e+01 7.2267287642102133e+01 3.0678102855721853e+01 0 0 0
942 1 8 -2.1201172743213800e-01 5.6934341422655201e+01 7.2496421715081524e+01 2.8675363554796796e+01 0 0 0
1093 1 6 8.1045363317189409e-02 6.1835668796709918e+01 7.3574083675310135e+01 2.9951890717578852e+01 0 0 0
1094 1 1 2.7003007354741965e-01 6.1490512415341342e+01 7.4338312347004916e+01 3.0721913260576940e+01 0 0 0
1095 1 7 -1.3427722218076982e-01 6.1732640529687011e+01 7.4184685156936951e+01 2.8575562587568452e+01 0 0 0
1099 1 6 5.3488591596414718e-02 6.1490503383185889e+01 7.3015097393343922e+01 2.7626742640405787e+01 0 0 0
1100 1 1 2.2657396886998149e-01 6.1066561806386517e+01 7.3410102488040167e+01 2.6647772202523164e+01 0 0 0
1101 1 7 -1.4359131075071271e-01 6.0386675663677700e+01 7.2335875318129055e+01 2.8449695865210174e+01 0 0 0
1102 1 7 3.4382748956459785e-01 5.9757146043805257e+01 7.1111163529484855e+01 2.7808442965360179e+01 0 0 0
1103 1 8 -2.6297610619253942e-01 5.9227074597493399e+01 7.0216807766161253e+01 2.8554263721337062e+01 0 0 0
1104 1 8 -2.2919200289724914e-01 5.9734190144780314e+01 7.1030202004256111e+01 2.6528752886912294e+01 0 0 0
1105 1 6 8.0978803337555250e-02 6.0878282169402148e+01 7.2281484045837317e+01 2.9869961482641756e+01 0 0 0
1106 1 1 2.8968486485122552e-01 5.9978125771097609e+01 7.2332008600718964e+01 3.0569197293633209e+01 0 0 0
1107 1 7 -1.5981107965840607e-01 6.1688968298854093e+01 7.1081869033932861e+01 3.0287444990186657e+01 0 0 0
1108 1 7 3.3008506305068741e-01 6.0932596164488771e+01 6.9869827848703167e+01 3.0853459697453079e+01 0 0 0
1109 1 8 -2.4918264352609149e-01 6.1444094745361298e+01 6.8703389358582200e+01 3.0730539009416070e+01 0 0 0
556 1 7 3.4099041459307955e-01 6.5974233862897236e+01 6.8887994932326421e+01 2.8664576992227744e+01 0 0 0
557 1 8 -2.8189412400709080e-01 6.5499781089590101e+01 6.9679899989023326e+01 2.7775041463064284e+01 0 0 0
558 1 8 -3.1770963760641341e-01 6.5697399947995095e+01 6.9026870440346030e+01 2.9908753554152575e+01 0 0 0
1081 1 6 3.9834591265471161e-02 6.2722524034485495e+01 7.2090517365942375e+01 2.7343675369854640e+01 0 0 0
1082 1 1 2.3094687887963872e-01 6.2955656106612444e+01 7.1989686501545620e+01 2.6231022247939137e+01 0 0 0
1083 1 7 -1.5310295260747955e-01 6.3956773518553348e+01 7.2612562737402442e+01 2.8055685533061791e+01 0 0 0
1084 1 7 3.1575404808318586e-01 6.5313033275516190e+01 7.2345503191575020e+01 2.7382549699238165e+01 0 0 0
1085 1 8 -1.7084247009275461e-01 6.6362002488161082e+01 7.2256995767875821e+01 2.8114315446297081e+01 0 0 0
1086 1 8 -1.9278682495668831e-01 6.5401498305680619e+01 7.2491989566782124e+01 2.6112990835929054e+01 0 0 0
1087 1 6 6.3489978800469374e-02 6.3838019311354657e+01 7.2050461574418208e+01 2.9476972557587747e+01 0 0 0
1088 1 1 2.4931696614868606e-01 6.4865518299102206e+01 7.1774536786431327e+01 2.9891296670526454e+01 0 0 0
1089 1 7 -1.5857493099186826e-01 6.3216044143481597e+01 7.3124421715722733e+01 3.0327179816444438e+01 0 0 0
1111 1 6 5.5903569644629530e-02 6.2861739262559134e+01 7.0805443875591877e+01 2.9387902503517260e+01 0 0 0
1112 1 1 2.4970834973238432e-01 6.3351465092841963e+01 6.9823644234743000e+01 2.9706989243165875e+01 0 0 0
1113 1 7 -1.6944627481760585e-01 6.2433130449396685e+01 7.0711307894647774e+01 2.7923523590323843e+01 0 0 0
1114 1 7 3.1929102319123170e-01 6.3045968226750361e+01 6.9526414955333067e+01 2.7160535163838922e+01 0 0 0
1116 1 8 -2.0458189987603304e-01 6.3150932548961599e+01 6.9610737258885067e+01 2.5886067334970271e+01 0 0 0
1151 1 8 -2.3574527292371461e-01 6.5616157501548031e+01 7.4677890636551268e+01 2.9066705667726428e+01 0 0 0
838 1 7 3.1789660392087193e-01 4.7890812505378179e+01 7.9954807999461238e+01 3.0420746380828810e+01 0 0 0
839 1 8 -2.2612699401919201e-01 4.8421996033211038e+01 8.0917653735796080e+01 2.9764882488348835e+01 0 0 0
840 1 8 -2.2551131210232078e-01 4.6790187424001807e+01 7.9407064675668693e+01 3.0062765063915908e+01 0 0 0
856 1 7 3.2658672674340972e-01 5.0919968742292653e+01 7.6146500249574004e+01 3.1112856920314250e+01 0 0 0
858 1 8 -2.5614148892553368e-01 5.1931576092788966e+01 7.6361495376767436e+01 3.0357667118541194e+01 0 0 0
952 1 7 3.5298615478445400e-01 5.4344651731952993e+01 7.5169020948840711e+01 3.0726960911075260e+01 0 0 0
954 1 8 -3.1953207262224081e-01 5.4634606822167989e+01 7.5292039325493903e+01 2.9483912683879904e+01 0 0 0
977 1 8 -2.9846100760474303e-01 5.3955879535394089e+01 7.8594890720411584e+01 3.1262837066417603e+01 0 0 0
980 1 1 2.4686977210544825e-01 5.5454688568750271e+01 7.8045640907702619e+01 2.9509881626567665e+01 0 0 0
984 1 8 -2.2528129695666010e-01 5.5263056534719851e+01 7.9407206718319259e+01 2.7501372948827569e+01 0 0 0
979 1 6 6.5990835392667702e-02 5.6481972269395492e+01 7.8324604668932153e+01 2.9923685720852749e+01 0 0 0
981 1 7 -1.8068711632452833e-01 5.7105355865074046e+01 7.9395951069157746e+01 2.9071988458267722e+01 0 0 0
982 1 7 3.1763090720987319e-01 5.6364262826743179e+01 7.9954972246425584e+01 2.7859604955365448e+01 0 0 0
983 1 8 -2.2592695045165095e-01 5.6895817768834299e+01 8.0918046289644849e+01 2.7203215400767451e+01 0 0 0
985 1 6 6.2554356741102018e-02 5.8486321972695720e+01 7.9840113186862965e+01 2.9445548141394966e+01 0 0 0
986 1 1 2.1568898451649704e-01 5.8830574117377203e+01 8.0602851645622607e+01 2.8669002438211376e+01 0 0 0
987 1 7 -1.7924216583259184e-01 5.8594793218464773e+01 8.0455311892194374e+01 3.0816251826971225e+01 0 0 0
993 1 7 -1.6944302093587835e-01 5.9931692007500352e+01 7.8605625839904661e+01 3.0950664704866853e+01 0 0 0
995 1 8 -2.6535965263308797e-01 6.1104086738937077e+01 7.6493305278429972e+01 3.0857119855809660e+01 0 0 0
997 1 6 6.4626972855978362e-02 5.9437162881868055e+01 7.8553936860719119e+01 2.9532221647860446e+01 0 0 0
998 1 1 2.5017571709688691e-01 6.0338906076213007e+01 7.8600481091690284e+01 2.8833822191498363e+01 0 0 0
999 1 7 -1.8120207463805199e-01 5.8630064625022548e+01 7.7357001825548139e+01 2.9112431564219975e+01 0 0 0
1000 1 7 3.2792821483850548e-01 5.9393565540731224e+01 7.6146412414749705e+01 2.8551532550606709e+01 0 0 0
1001 1 8 -2.5591936032389323e-01 5.8876795212465879e+01 7.4980197633592581e+01 2.8657237560714236e+01 0 0 0
1002 1 8 -2.5425263826693467e-01 6.0404556750764797e+01 7.6361740839072311e+01 2.7795266494962927e+01 0 0 0
1003 1 6 6.5042060524647061e-02 5.7457886468146967e+01 7.7076988191129374e+01 3.0012776688341198e+01 0 0 0
1004 1 1 2.4717593103527352e-01 5.6968795407966546e+01 7.6096650617482837e+01 2.9692572235933348e+01 0 0 0
1096 1 7 3.5193364537936905e-01 6.2816926749444669e+01 7.5169754826460107e+01 2.8164786055184923e+01 0 0 0
1097 1 8 -2.6099093390786882e-01 6.3312281981807459e+01 7.5951193029334917e+01 2.9051582966985109e+01 0 0 0
1098 1 8 -3.2152041332469888e-01 6.3107357384400288e+01 7.5291748755281020e+01 2.6921925881853987e+01 0 0 0
1117 1 6 4.6396111989005714e-02 6.6068510351531984e+01 7.8365085846288636e+01 2.9496081860543750e+01 0 0 0
1118 1 1 2.4795851144029613e-01 6.5832315740610625e+01 7.8265505288294975e+01 3.0610932513910900e+01 0 0 0
1119 1 7 -1.5296023525413566e-01 6.4834525682403097e+01 7.8886636347513573e+01 2.8783473863195102e+01 0 0 0
1120 1 7 3.4811987588197024e-01 6.3471734383066703e+01 7.8621561492910544e+01 2.9449176528217492e+01 0 0 0
1121 1 8 -3.0050892464733048e-01 6.2428063927359240e+01 7.8594678608752830e+01 2.8702659472826902e+01 0 0 0
1122 1 8 -2.0458437441009847e-01 6.3371523624237298e+01 7.8773455331694265e+01 3.0718941729238907e+01 0 0 0
1123 1 6 6.5113467063273159e-02 6.4950868946957101e+01 7.8328067863760239e+01 2.7361685477843757e+01 0 0 0
1124 1 1 2.4592438347076484e-01 6.3920949996923902e+01 7.8046537540235661e+01 2.6946828578783091e+01 0 0 0
1125 1 7 -1.8084365560195009e-01 6.5570041470642579e+01 7.9400326181212449e+01 2.6509371283698481e+01 0 0 0
1126 1 7 3.1834869727923187e-01 6.4834536781695249e+01 7.9957745991611247e+01 2.5295799502085814e+01 0 0 0
1128 1 8 -2.2410442921022500e-01 6.3736097437282460e+01 7.9406935674474255e+01 2.4937207658373318e+01 0 0 0
1129 1 6 5.7775445202637513e-02 6.6957158665970198e+01 7.9848280786195659e+01 2.6882080877746091e+01 0 0 0
1130 1 1 2.0400681302998114e-01 6.7297977315211156e+01 8.0606313147659506e+01 2.6107218542869898e+01 0 0 0
1131 1 7 -1.9230413466435439e-01 6.7066296177810770e+01 8.0458547288178181e+01 2.8259887915423864e+01 0 0 0
1135 1 6 6.0188827473332041e-02 6.7298817905861839e+01 7.9287778435524260e+01 2.9208996967763536e+01 0 0 0
1136 1 1 2.0734525973435974e-01 6.7718494644821931e+01 7.9680527023367233e+01 3.0192936642784005e+01 0 0 0
1137 1 7 -1.9738883058034323e-01 6.8399883842857307e+01 7.8610319094921792e+01 2.8389644697662106e+01 0 0 0
1141 1 6 5.7314523917273444e-02 6.7909774731305419e+01 7.8556526958406636e+01 2.6969408316682628e+01 0 0 0
1142 1 1 1.9967983573240083e-01 6.8806781699652504e+01 7.8605237556761708e+01 2.6272039706095804e+01 0 0 0
1143 1 7 -1.8983032495751470e-01 6.7099517357256161e+01 7.7356584159417707e+01 2.6546564878463450e+01 0 0 0
1144 1 7 3.2171197953303499e-01 6.7872279113016944e+01 7.6148232606381882e+01 2.5990902973867168e+01 0 0 0
1145 1 8 -1.8020891229674443e-01 6.7340894541486136e+01 7.4989044515590280e+01 2.6077107961882689e+01 0 0 0
1146 1 8 -2.2173799024150181e-01 6.8884518920103005e+01 7.6371466392081288e+01 2.5240990145231081e+01 0 0 0
1147 1 6 6.3792019576182718e-02 6.5930748101857859e+01 7.7077743506192562e+01 2.7450591604966590e+01 0 0 0
1148 1 1 2.4539126362787381e-01 6.5437898416912873e+01 7.6092997543803961e+01 2.7130677512072751e+01 0 0 0
1149 1 7 -1.5169954457749998e-01 6.6359017407477523e+01 7.6983225173337047e+01 2.8916973226924551e+01 0 0 0
1150 1 7 3.3143907842874887e-01 6.5745120123060047e+01 7.5796539565699774e+01 2.9677875519341313e+01 0 0 0
1152 1 8 -2.0002882230564301e-01 6.5643406404268333e+01 7.5876118678177122e+01 3.0952181977738732e+01 0 0 0
1138 1 7 3.1151722407447396e-01 6.9023091176419783e+01 7.7379572571629112e+01 2.9027752469401410e+01 0 0 0
1139 1 8 -1.8715173621460690e-01 6.9604193279012705e+01 7.6516662688137458e+01 2.8281571395147580e+01 0 0 0
1140 1 8 -2.2972966087590074e-01 6.9064401484421850e+01 7.7310592910466397e+01 3.0307541830275792e+01 0 0 0
988 1 7 3.1014721171071730e-01 5.7502002505528957e+01 8.1434587762896342e+01 3.1224850211159954e+01 0 0 0
989 1 8 -2.0382108796343434e-01 5.7017750229221093e+01 8.2220946446439356e+01 3.0336217695896270e+01 0 0 0
1132 1 7 3.1206208648551736e-01 6.5972823178116485e+01 8.1436552263397544e+01 2.8663654149299230e+01 0 0 0
1133 1 8 -1.9855313124031532e-01 6.5489573773579735e+01 8.2224394276258892e+01 2.7775069756114252e+01 0 0 0
1134 1 8 -2.2817628918683225e-01 6.5705899803998349e+01 8.1573310385887297e+01 2.9910003678401093e+01 0 0 0
107 1 8 -2.1696061940525790e-01 3.7770877364662830e+01 5.5849342913172684e+01 3.5461466226887410e+01 0 0 0
251 1 8 -2.1711362991305871e-01 4.6243246504949404e+01 5.5851100325274523e+01 3.2900675311142273e+01 0 0 0
344 1 1 2.0913309966481228e-01 4.8360496550878580e+01 5.5242503960743527e+01 3.7181251159605040e+01 0 0 0
330 1 8 -2.0450486049776559e-01 5.2706382451556188e+01 5.6150827885867308e+01 3.6652037088693426e+01 0 0 0
471 1 7 -1.5512539853975221e-01 5.9717497411737853e+01 5.6039461127622253e+01 3.6028156860122898e+01 0 0 0
472 1 7 3.1566583655554359e-01 6.1077128856147716e+01 5.6299753623562481e+01 3.5360066456167210e+01 0 0 0
474 1 8 -1.8578037055493402e-01 6.1173393021609783e+01 5.6158567912076151e+01 3.4089628381376734e+01 0 0 0
483 1 7 -1.8530604892630659e-01 5.7487653755123759e+01 5.4467523531858440e+01 3.6551075846134587e+01 0 0 0
484 1 7 3.0633575389315881e-01 5.8581038943599189e+01 5.3491282733929793e+01 3.6144959259622006e+01 0 0 0
485 1 8 -2.0524547155191503e-01 5.9062424143295708e+01 5.2700216202302784e+01 3.7033205335325022e+01 0 0 0
486 1 8 -2.2856517261246173e-01 5.8846666164356492e+01 5.3352500928331210e+01 3.4897308589208670e+01 0 0 0
487 1 6 5.6101422117433478e-02 5.7251937093575727e+01 5.5639353331115331e+01 3.5600437810087413e+01 0 0 0
488 1 1 2.0915075010105821e-01 5.6832792891654712e+01 5.5242797724205289e+01 3.4619456929259080e+01 0 0 0
73 1 6 3.7795420216716988e-02 3.7302132875118907e+01 5.9535461581554266e+01 3.5026180845724127e+01 0 0 0
87 1 7 -1.8182525950484996e-01 3.6310485844992250e+01 6.1631954736110998e+01 3.6263861453758750e+01 0 0 0
88 1 7 3.4248114750093600e-01 3.7399623165111279e+01 6.2612619950142260e+01 3.5849525054321987e+01 0 0 0
91 1 6 5.9359116727445808e-02 3.6073907990342434e+01 6.0454351737542567e+01 3.5313052430820235e+01 0 0 0
92 1 1 2.0442533700288057e-01 3.5654312673788787e+01 6.0847647402687670e+01 3.4326719262043710e+01 0 0 0
93 1 7 -1.9096728581222569e-01 3.4967247969781106e+01 5.9778972149744234e+01 3.6132343205346245e+01 0 0 0
94 1 7 3.1489747839071136e-01 3.4346451384641647e+01 5.8546583905114161e+01 3.5488226837139280e+01 0 0 0
95 1 8 -1.9626835203127113e-01 3.3769599155135346e+01 5.7678386700060834e+01 3.6237098745479393e+01 0 0 0
96 1 8 -2.4010048113034432e-01 3.4309346129792402e+01 5.8474046437915042e+01 3.4205091496195216e+01 0 0 0
103 1 6 5.8541956780246332e-02 3.7446445242763424e+01 5.8246978595592765e+01 3.7065879473643840e+01 0 0 0
105 1 7 -1.6905892889045629e-01 3.7019172576866893e+01 5.8154155007388773e+01 3.5604437331706372e+01 0 0 0
74 1 1 2.2929654123865839e-01 3.7537803465087883e+01 5.9435794041675642e+01 3.3912732405457326e+01 0 0 0
75 1 7 -1.5279640009810125e-01 3.8538399511534905e+01 6.0059351469468460e+01 3.5738636888803846e+01 0 0 0
76 1 7 3.2188188595620609e-01 3.9894214141485556e+01 5.9794288009285850e+01 3.5065225735268875e+01 0 0 0
77 1 8 -2.6877557924334200e-01 4.0939157817348544e+01 5.9678169250301856e+01 3.5799545035597966e+01 0 0 0
78 1 8 -2.2169954448328213e-01 3.9988003871986926e+01 5.9938467319725547e+01 3.3794524303988041e+01 0 0 0
79 1 6 6.6338422809128328e-02 3.8423289806336882e+01 5.9498556632563009e+01 3.7157014423879197e+01 0 0 0
104 1 1 2.3573920481272281e-01 3.7934271389009858e+01 5.7266457472169478e+01 3.7386838206513779e+01 0 0 0
106 1 7 2.9714192506858778e-01 3.7629243016484473e+01 5.6965808208743447e+01 3.4844612162937914e+01 0 0 0
108 1 8 -2.0018821605072656e-01 3.7760442516892056e+01 5.7044936908425385e+01 3.3571158253391076e+01 0 0 0
143 1 8 -2.3022568334942090e-01 4.0177557794439970e+01 6.2129233048752006e+01 3.6745548823267612e+01 0 0 0
237 1 7 -1.4474748245282140e-01 4.3438547164483076e+01 5.9780169723997481e+01 3.3572998059956475e+01 0 0 0
238 1 7 3.2292396677272206e-01 4.2809744600777719e+01 5.8554488420126724e+01 3.2931169978397406e+01 0 0 0
239 1 8 -1.8413668388722867e-01 4.2249270600996482e+01 5.7672931215955366e+01 3.3676196925529744e+01 0 0 0
240 1 8 -2.2306922608559926e-01 4.2785013935760148e+01 5.8475657975571529e+01 3.1648731183468797e+01 0 0 0
242 1 1 2.8557869309233658e-01 4.3027739896878600e+01 5.9777445492707429e+01 3.5693938083973563e+01 0 0 0
246 1 8 -2.0432960027559799e-01 4.2947549515268349e+01 5.7517401851813261e+01 3.6708149681084329e+01 0 0 0
217 1 6 3.5975257168123935e-02 4.5776467993882996e+01 5.9535132193009026e+01 3.2465386989526607e+01 0 0 0
218 1 1 2.2794482213565720e-01 4.6007973184184721e+01 5.9438143531002105e+01 3.1352740681698958e+01 0 0 0
219 1 7 -1.5640533783429766e-01 4.7008318239699548e+01 6.0060569726908291e+01 3.3177396438410256e+01 0 0 0
220 1 7 3.1887355974394149e-01 4.8364337808164535e+01 5.9794307787217413e+01 3.2505367392948010e+01 0 0 0
221 1 8 -2.6933689017757678e-01 4.9410206413569391e+01 5.9678081714415654e+01 3.3239399386922678e+01 0 0 0
222 1 8 -2.2406756479176335e-01 4.8458558729825782e+01 5.9938385574720975e+01 3.1234317788877107e+01 0 0 0
223 1 6 6.3167962437886666e-02 4.6892656050582595e+01 5.9499951819473431e+01 3.4599446287810288e+01 0 0 0