ITEM: TIMESTEP
0
ITEM: NUMBER OF ATOMS
448
ITEM: BOX BOUNDS xy xz yz pp pp pp
-2.4186686450000000e-01 1.3879200000000001e+01 8.1284706647000001e-16
0.0000000000000000e+00 1.3274800000000003e+01 -2.4186686450000000e-01
0.0000000000000000e+00 2.2679910358299999e+01 1.4036330231000001e-15
ITEM: ATOMS id type xs ys zs
1 1 0.343434 0.12071 0.263591
2 2 0.244121 0.126 0.255802
3 3 0.220211 0.153943 0.214716
4 3 0.200895 0.0975297 0.289465
5 2 0.402899 0.15072 0.218568
6 3 0.481058 0.146009 0.228959
7 3 0.367784 0.174692 0.179593
8 1 0.382943 0.0861914 0.318085
9 2 0.318585 0.0641535 0.369697
10 4 0.350436 0.0824015 0.422383
11 4 0.233375 0.0291359 0.357574
12 2 0.487984 0.0731655 0.327965
13 4 0.516045 0.0307914 0.377049
14 4 0.544688 0.104559 0.286308
15 1 0.406566 0.37071 0.486409
16 2 0.505879 0.376 0.494198
17 3 0.529789 0.403943 0.535284
18 3 0.549105 0.34753 0.460535
19 2 0.347101 0.40072 0.531432
20 3 0.268942 0.396009 0.521041
21 3 0.382216 0.424692 0.570407
22 1 0.367056 0.336191 0.431915
23 2 0.431414 0.314153 0.380303
24 4 0.399564 0.332402 0.327617
25 4 0.516625 0.279136 0.392426
26 2 0.262016 0.323165 0.422035
27 4 0.233955 0.280791 0.372952
28 4 0.205312 0.354559 0.463692
29 1 0.156567 0.37929 0.236409
30 2 0.255878 0.374 0.244198
31 3 0.279789 0.346057 0.285284
32 3 0.299105 0.40247 0.210534
33 2 0.0971015 0.34928 0.281432
34 3 0.018942 0.353991 0.271041
35 3 0.132216 0.325308 0.320407
36 1 0.117057 0.413808 0.181916
37 2 0.181414 0.435847 0.130304
38 4 0.14956 0.417599 0.077619
39 4 0.266624 0.470865 0.142427
40 2 0.0120154 0.426835 0.172035
41 4 0.983955 0.469209 0.122951
42 4 0.955312 0.395441 0.213692
43 1 0.0934337 0.12929 0.0135915
44 2 0.994122 0.124 0.00580204
45 3 0.970211 0.0960572 0.964716
46 3 0.950895 0.15247 0.0394654
47 2 0.152898 0.0992803 0.968568
48 3 0.231058 0.103991 0.97896
49 3 0.117784 0.0753077 0.929593
50 1 0.132943 0.163808 0.0680845
51 2 0.0685855 0.185847 0.119697
52 4 0.100436 0.167598 0.172383
53 4 0.983375 0.220864 0.107574
54 2 0.237984 0.176834 0.0779653
55 4 0.266045 0.219209 0.127049
56 4 0.294688 0.145442 0.0363079
57 1 0.843434 0.12071 0.263592
58 2 0.744122 0.126 0.255802
59 3 0.720211 0.153943 0.214716
60 3 0.700895 0.0975297 0.289465
61 2 0.902898 0.15072 0.218568
62 3 0.981058 0.146009 0.228959
63 3 0.867784 0.174692 0.179593
64 1 0.882943 0.0861916 0.318084
65 2 0.818585 0.0641535 0.369697
66 4 0.850436 0.0824015 0.422383
67 4 0.733376 0.0291359 0.357574
68 2 0.987984 0.0731655 0.327965
69 4 0.016045 0.0307913 0.377049
70 4 0.044688 0.104559 0.286308
71 1 0.906566 0.37071 0.486409
72 2 0.00587841 0.376 0.494198
73 3 0.0297887 0.403943 0.535284
74 3 0.0491053 0.34753 0.460535
75 2 0.847102 0.40072 0.531432
76 3 0.768942 0.396009 0.521041
77 3 0.882216 0.424692 0.570407
78 1 0.867057 0.336192 0.431915
79 2 0.931415 0.314153 0.380303
80 4 0.899564 0.332402 0.327617
81 4 0.0166246 0.279136 0.392426
82 2 0.762016 0.323165 0.422035
83 4 0.733955 0.280791 0.372951
84 4 0.705312 0.354559 0.463692
85 1 0.656566 0.37929 0.236409
86 2 0.755878 0.374 0.244198
87 3 0.779789 0.346057 0.285284
88 3 0.799105 0.40247 0.210535
89 2 0.597102 0.34928 0.281432
90 3 0.518942 0.353991 0.27104
91 3 0.632216 0.325308 0.320407
92 1 0.617057 0.413809 0.181916
93 2 0.681415 0.435846 0.130305
94 4 0.649568 0.4176 0.0776168
95 4 0.766625 0.470864 0.142427
96 2 0.512017 0.426834 0.172036
97 4 0.483957 0.46921 0.12295
98 4 0.455313 0.395441 0.213692
99 1 0.593434 0.12929 0.0135915
100 2 0.494121 0.123999 0.00580206
101 3 0.470211 0.0960574 0.964716
102 3 0.450895 0.15247 0.0394655
103 2 0.652899 0.0992804 0.968568
104 3 0.731058 0.103991 0.97896
105 3 0.617784 0.0753075 0.929593
106 1 0.632943 0.163809 0.0680848
107 2 0.568585 0.185847 0.119697
108 4 0.600436 0.167599 0.172382
109 4 0.483376 0.220864 0.107574
110 2 0.737984 0.176835 0.0779653
111 4 0.766045 0.219209 0.127048
112 4 0.794688 0.145441 0.036308
113 1 0.343434 0.62071 0.263591
114 2 0.244121 0.626 0.255802
115 3 0.220211 0.653943 0.214716
116 3 0.200895 0.59753 0.289465
117 2 0.402899 0.65072 0.218568
118 3 0.481058 0.646009 0.228959
119 3 0.367784 0.674692 0.179593
120 1 0.382944 0.586191 0.318085
121 2 0.318585 0.564153 0.369697
122 4 0.350436 0.582402 0.422383
123 4 0.233375 0.529136 0.357574
124 2 0.487984 0.573165 0.327965
125 4 0.516045 0.530791 0.377049
126 4 0.544688 0.604559 0.286308
127 1 0.406566 0.87071 0.486409
128 2 0.505879 0.876 0.494198
129 3 0.529789 0.903943 0.535284
130 3 0.549105 0.84753 0.460535
131 2 0.347101 0.90072 0.531432
132 3 0.268942 0.896009 0.521041
133 3 0.382216 0.924692 0.570407
134 1 0.367056 0.836191 0.431915
135 2 0.431414 0.814153 0.380303
136 4 0.399564 0.832402 0.327617
137 4 0.516625 0.779136 0.392426
138 2 0.262016 0.823165 0.422035
139 4 0.233955 0.780791 0.372952
140 4 0.205312 0.854559 0.463692
141 1 0.156567 0.87929 0.236409
142 2 0.255878 0.874 0.244198
143 3 0.279789 0.846057 0.285284
144 3 0.299105 0.90247 0.210534
145 2 0.0971016 0.84928 0.281432
146 3 0.018942 0.853991 0.271041
147 3 0.132216 0.825308 0.320407
148 1 0.117057 0.913808 0.181916
149 2 0.181414 0.935847 0.130304
150 4 0.14956 0.917599 0.077619
151 4 0.266624 0.970865 0.142427
152 2 0.0120154 0.926835 0.172035
153 4 0.983955 0.969209 0.122951
154 4 0.955312 0.895441 0.213692
155 1 0.0934337 0.62929 0.0135915
156 2 0.994122 0.624 0.00580203
157 3 0.970211 0.596057 0.964716
158 3 0.950895 0.65247 0.0394654
159 2 0.152898 0.59928 0.968568
160 3 0.231058 0.603991 0.97896
161 3 0.117784 0.575308 0.929593
162 1 0.132943 0.663808 0.0680846
163 2 0.0685855 0.685847 0.119697
164 4 0.100436 0.667598 0.172383
165 4 0.983375 0.720864 0.107574
166 2 0.237984 0.676834 0.0779653
167 4 0.266045 0.719208 0.127049
168 4 0.294688 0.645442 0.0363079
169 1 0.843434 0.62071 0.263592
170 2 0.744122 0.626 0.255802
171 3 0.720211 0.653943 0.214716
172 3 0.700895 0.59753 0.289465
173 2 0.902898 0.65072 0.218568
174 3 0.981058 0.646009 0.228959
175 3 0.867784 0.674692 0.179593
176 1 0.882943 0.586192 0.318084
177 2 0.818585 0.564153 0.369697
178 4 0.850436 0.582402 0.422383
179 4 0.733376 0.529136 0.357574
180 2 0.987984 0.573165 0.327965
181 4 0.016045 0.530791 0.377049
182 4 0.044688 0.604559 0.286308
183 1 0.906566 0.87071 0.486409
184 2 0.0058784 0.876 0.494198
185 3 0.0297887 0.903943 0.535284
186 3 0.0491053 0.84753 0.460535
187 2 0.847102 0.90072 0.531432
188 3 0.768942 0.896009 0.521041
189 3 0.882216 0.924692 0.570407
190 1 0.867057 0.836192 0.431915
191 2 0.931415 0.814153 0.380303
192 4 0.899564 0.832402 0.327617
193 4 0.0166245 0.779136 0.392426
194 2 0.762016 0.823165 0.422035
195 4 0.733955 0.780791 0.372951
196 4 0.705312 0.854559 0.463692
197 1 0.656566 0.87929 0.236409
198 2 0.755879 0.874 0.244198
199 3 0.779789 0.846057 0.285284
200 3 0.799105 0.90247 0.210535
201 2 0.597102 0.84928 0.281432
202 3 0.518942 0.853991 0.27104
203 3 0.632216 0.825308 0.320407
204 1 0.617057 0.913809 0.181916
205 2 0.681415 0.935846 0.130305
206 4 0.649568 0.9176 0.0776168
207 4 0.766625 0.970864 0.142427
208 2 0.512017 0.926834 0.172036
209 4 0.483957 0.96921 0.12295
210 4 0.455313 0.895441 0.213692
211 1 0.593434 0.62929 0.0135915
212 2 0.494121 0.623999 0.00580206
213 3 0.470211 0.596057 0.964716
214 3 0.450895 0.65247 0.0394655
215 2 0.652899 0.59928 0.968568
216 3 0.731058 0.603991 0.97896
217 3 0.617784 0.575307 0.929593
218 1 0.632943 0.663809 0.0680848
219 2 0.568585 0.685847 0.119697
220 4 0.600436 0.667599 0.172382
221 4 0.483376 0.720864 0.107574
222 2 0.737984 0.676835 0.0779653
223 4 0.766045 0.719209 0.127048
224 4 0.794688 0.645441 0.036308
225 1 0.343434 0.12071 0.763591
226 2 0.24412 0.126 0.755802
227 3 0.220211 0.153943 0.714716
228 3 0.200895 0.0975298 0.789465
229 2 0.402899 0.150721 0.718568
230 3 0.481058 0.146009 0.728959
231 3 0.367784 0.174692 0.679593
232 1 0.382944 0.0861909 0.818086
233 2 0.318585 0.0641533 0.869697
234 4 0.350436 0.0824 0.922383
235 4 0.233376 0.0291358 0.857574
236 2 0.487984 0.0731652 0.827965
237 4 0.516045 0.0307913 0.877048
238 4 0.544688 0.104559 0.786308
239 1 0.406575 0.370725 0.986456
240 2 0.505587 0.376007 0.994152
241 3 0.529864 0.403963 0.0353142
242 3 0.549199 0.347476 0.9605
243 2 0.34726 0.400614 0.0312865
244 3 0.268854 0.396031 0.0210651
245 3 0.382199 0.424722 0.0704584
246 1 0.367199 0.336262 0.932017
247 2 0.431634 0.314066 0.880113
248 4 0.399771 0.332291 0.827884
249 4 0.516152 0.279359 0.892364
250 2 0.261737 0.323133 0.921999
251 4 0.233985 0.28087 0.87303
252 4 0.20549 0.35449 0.963597
253 1 0.156566 0.37929 0.736408
254 2 0.255875 0.374001 0.744197
255 3 0.279802 0.346055 0.785291
256 3 0.299105 0.402471 0.710534
257 2 0.0971029 0.349282 0.78143
258 3 0.0189418 0.353991 0.77104
259 3 0.132231 0.3253 0.820416
260 1 0.117058 0.413807 0.681917
261 2 0.181414 0.435846 0.630304
262 4 0.149564 0.417598 0.577617
263 4 0.266626 0.470864 0.642426
264 2 0.012016 0.426834 0.672035
265 4 0.983955 0.469209 0.622951
266 4 0.955312 0.395441 0.713692
267 1 0.0934336 0.12929 0.513591
268 2 0.994121 0.124 0.505802
269 3 0.970211 0.0960572 0.464716
270 3 0.950895 0.15247 0.539465
271 2 0.152899 0.09928 0.468568
272 3 0.231058 0.103991 0.478959
273 3 0.117784 0.0753077 0.429593
274 1 0.132943 0.163809 0.568085
275 2 0.0685855 0.185847 0.619697
276 4 0.100436 0.167599 0.672383
277 4 0.983375 0.220864 0.607574
278 2 0.237984 0.176835 0.577965
279 4 0.266045 0.219209 0.627049
280 4 0.294688 0.145441 0.536308
281 1 0.843434 0.12071 0.763592
282 2 0.744121 0.126 0.755802
283 3 0.720211 0.153943 0.714716
284 3 0.700895 0.0975297 0.789465
285 2 0.902899 0.15072 0.718568
286 3 0.981058 0.146009 0.728959
287 3 0.867784 0.174692 0.679593
288 1 0.882943 0.0861914 0.818085
289 2 0.818585 0.0641535 0.869697
290 4 0.850436 0.0824015 0.922383
291 4 0.733375 0.0291358 0.857574
292 2 0.987984 0.0731654 0.827965
293 4 0.016045 0.0307913 0.877049
294 4 0.0446878 0.104559 0.786308
295 1 0.906566 0.37071 0.986409
296 2 0.00587805 0.376 0.994198
297 3 0.0297887 0.403943 0.0352842
298 3 0.0491068 0.34753 0.960535
299 2 0.847102 0.40072 0.0314316
300 3 0.768942 0.396009 0.0210407
301 3 0.882216 0.424692 0.0704067
302 1 0.867057 0.336192 0.931916
303 2 0.931415 0.314153 0.880303
304 4 0.899564 0.332402 0.827617
305 4 0.0166249 0.279136 0.892426
306 2 0.762017 0.323165 0.922034
307 4 0.733955 0.280791 0.872951
308 4 0.705315 0.354559 0.963692
309 1 0.656566 0.37929 0.736408
310 2 0.755877 0.374 0.744198
311 3 0.779789 0.346057 0.785284
312 3 0.799105 0.40247 0.710535
313 2 0.597102 0.34928 0.781431
314 3 0.518943 0.353991 0.771041
315 3 0.632216 0.325308 0.820406
316 1 0.617058 0.413808 0.681917
317 2 0.681414 0.435846 0.630304
318 4 0.649564 0.417598 0.577617
319 4 0.766625 0.470864 0.642426
320 2 0.512016 0.426835 0.672034
321 4 0.483955 0.469209 0.622951
322 4 0.455311 0.395442 0.713691
323 1 0.593434 0.12929 0.513592
324 2 0.494122 0.124 0.505802
325 3 0.470211 0.0960572 0.464716
326 3 0.450895 0.15247 0.539465
327 2 0.652898 0.0992801 0.468568
328 3 0.731058 0.103991 0.478959
329 3 0.617784 0.0753077 0.429593
330 1 0.632943 0.163808 0.568084
331 2 0.568585 0.185847 0.619697
332 4 0.600436 0.167598 0.672383
333 4 0.483375 0.220864 0.607574
334 2 0.737984 0.176835 0.577965
335 4 0.766045 0.219209 0.627049
336 4 0.794688 0.145441 0.536308
337 1 0.343434 0.62071 0.763591
338 2 0.24412 0.626 0.755802
339 3 0.220211 0.653943 0.714716
340 3 0.200895 0.59753 0.789465
341 2 0.402899 0.65072 0.718568
342 3 0.481058 0.646009 0.728959
343 3 0.367784 0.674692 0.679593
344 1 0.382944 0.586191 0.818086
345 2 0.318585 0.564153 0.869697
346 4 0.350436 0.5824 0.922383
347 4 0.233376 0.529136 0.857574
348 2 0.487984 0.573165 0.827965
349 4 0.516045 0.530791 0.877048
350 4 0.544688 0.604559 0.786308
351 1 0.406575 0.870725 0.986456
352 2 0.505587 0.876007 0.994152
353 3 0.529864 0.903963 0.0353142
354 3 0.549199 0.847476 0.9605
355 2 0.34726 0.900614 0.0312865
356 3 0.268854 0.896031 0.0210651
357 3 0.382199 0.924722 0.0704584
358 1 0.367199 0.836262 0.932017
359 2 0.431634 0.814066 0.880113
360 4 0.399771 0.832291 0.827884
361 4 0.516152 0.779359 0.892364
362 2 0.261737 0.823133 0.921999
363 4 0.233985 0.78087 0.87303
364 4 0.20549 0.85449 0.963597
365 1 0.156566 0.87929 0.736408
366 2 0.255875 0.874001 0.744197
367 3 0.279802 0.846055 0.785291
368 3 0.299105 0.902471 0.710534
369 2 0.0971029 0.849282 0.78143
370 3 0.0189418 0.853991 0.77104
371 3 0.132231 0.8253 0.820416
372 1 0.117059 0.913807 0.681917
373 2 0.181414 0.935846 0.630304
374 4 0.149564 0.917598 0.577617
375 4 0.266626 0.970864 0.642426
376 2 0.012016 0.926834 0.672035
377 4 0.983955 0.969209 0.622951
378 4 0.955311 0.895441 0.713692
379 1 0.0934336 0.62929 0.513591
380 2 0.994121 0.624 0.505802
381 3 0.970211 0.596057 0.464716
382 3 0.950895 0.65247 0.539465
383 2 0.152899 0.59928 0.468568
384 3 0.231058 0.603991 0.478959
385 3 0.117784 0.575308 0.429593
386 1 0.132943 0.663809 0.568085
387 2 0.0685855 0.685847 0.619697
388 4 0.100436 0.667599 0.672383
389 4 0.983375 0.720864 0.607574
390 2 0.237984 0.676835 0.577965
391 4 0.266045 0.719209 0.627049
392 4 0.294688 0.645441 0.536308
393 1 0.843434 0.62071 0.763591
394 2 0.744121 0.626 0.755802
395 3 0.720211 0.653943 0.714716
396 3 0.700895 0.59753 0.789465
397 2 0.902899 0.65072 0.718568
398 3 0.981058 0.646009 0.728959
399 3 0.867784 0.674692 0.679593
400 1 0.882944 0.586191 0.818085
401 2 0.818585 0.564153 0.869697
402 4 0.850436 0.582402 0.922383
403 4 0.733375 0.529136 0.857574
404 2 0.987984 0.573165 0.827965
405 4 0.0160449 0.530791 0.877048
406 4 0.0446878 0.604559 0.786308
407 1 0.906566 0.87071 0.986409
408 2 0.00587813 0.876 0.994198
409 3 0.0297887 0.903943 0.0352842
410 3 0.0491068 0.84753 0.960535
411 2 0.847102 0.90072 0.0314317
412 3 0.768942 0.896009 0.0210407
413 3 0.882216 0.924692 0.0704067
414 1 0.867057 0.836192 0.931916
415 2 0.931415 0.814153 0.880303
416 4 0.899564 0.832402 0.827617
417 4 0.0166249 0.779136 0.892426
418 2 0.762017 0.823165 0.922034
419 4 0.733955 0.780791 0.872951
420 4 0.705315 0.854559 0.963692
421 1 0.656566 0.87929 0.736408
422 2 0.755877 0.874 0.744198
423 3 0.779789 0.846057 0.785284
424 3 0.799105 0.90247 0.710535
425 2 0.597102 0.84928 0.781431
426 3 0.518943 0.853991 0.771041
427 3 0.632216 0.825308 0.820406
428 1 0.617058 0.913808 0.681916
429 2 0.681414 0.935846 0.630304
430 4 0.649564 0.917598 0.577617
431 4 0.766625 0.970864 0.642426
432 2 0.512016 0.926835 0.672034
433 4 0.483955 0.969209 0.622951
434 4 0.455311 0.895442 0.713691
435 1 0.593434 0.62929 0.513591
436 2 0.494122 0.624 0.505802
437 3 0.470211 0.596057 0.464716
438 3 0.450895 0.65247 0.539465
439 2 0.652898 0.59928 0.468568
440 3 0.731058 0.603991 0.478959
441 3 0.617784 0.575308 0.429593
442 1 0.632943 0.663808 0.568085
443 2 0.568585 0.685847 0.619697
444 4 0.600436 0.667598 0.672383
445 4 0.483375 0.720864 0.607574
446 2 0.737984 0.676835 0.577965
447 4 0.766045 0.719209 0.627049
448 4 0.794688 0.645441 0.536308
ITEM: TIMESTEP
1000
ITEM: NUMBER OF ATOMS
448
ITEM: BOX BOUNDS xy xz yz pp pp pp
-1.7990120056703449e+00 1.3874821857470772e+01 4.0734025987917023e-03
4.9781017561388108e-01 1.2926829128105535e+01 -1.8074635507983285e+00
7.3060203581045258e-01 2.1949308322489543e+01 1.4983930371942261e-01
ITEM: ATOMS id type xs ys zs
1 1 0.346082 0.106839 0.250665
2 2 0.24956 0.114204 0.236455
3 3 0.220355 0.158492 0.192095
4 3 0.202978 0.0732153 0.279416
5 2 0.405873 0.137999 0.207012
6 3 0.492532 0.126922 0.228191
7 3 0.374886 0.172232 0.152342
8 1 0.382735 0.0669915 0.315189
9 2 0.316449 0.0500123 0.364801
10 4 0.343276 0.0575347 0.424555
11 4 0.223716 0.0351831 0.348325
12 2 0.485091 0.05317 0.330748
13 4 0.508108 0.0121753 0.388196
14 4 0.546944 0.0839774 0.291138
15 1 0.410302 0.381217 0.501655
16 2 0.507223 0.385036 0.512308
17 3 0.535745 0.435403 0.56089
18 3 0.549275 0.352068 0.469438
19 2 0.347952 0.41336 0.541089
20 3 0.260767 0.396803 0.525021
21 3 0.379331 0.44523 0.596253
22 1 0.367911 0.33388 0.439892
23 2 0.426887 0.307395 0.390606
24 4 0.393841 0.298795 0.330127
25 4 0.52206 0.292999 0.406097
26 2 0.263668 0.307301 0.430626
27 4 0.232644 0.253778 0.381602
28 4 0.200464 0.340883 0.47039
29 1 0.151429 0.381781 0.253748
30 2 0.247174 0.383382 0.267138
31 3 0.292547 0.34948 0.318096
32 3 0.281099 0.43577 0.225019
33 2 0.090049 0.336475 0.293789
34 3 0.00634068 0.32385 0.269614
35 3 0.127165 0.307531 0.333412
36 1 0.104964 0.429105 0.193801
37 2 0.16562 0.453279 0.142577
38 4 0.12633 0.452582 0.0828402
39 4 0.25799 0.472878 0.154514
40 2 0.000754432 0.431096 0.180031
41 4 0.968424 0.487385 0.128099
42 4 0.944706 0.370589 0.212688
43 1 0.106132 0.139042 0.00633226
44 2 0.00844573 0.138467 0.993807
45 3 0.98252 0.0805616 0.948317
46 3 0.953295 0.1803 0.0275733
47 2 0.16462 0.0908373 0.968531
48 3 0.250346 0.110541 0.986351
49 3 0.122435 0.045553 0.919492
50 1 0.148056 0.189125 0.0675821
51 2 0.0795141 0.20123 0.116016
52 4 0.108782 0.210157 0.175069
53 4 0.98704 0.224786 0.0948926
54 2 0.248351 0.19996 0.0810805
55 4 0.286213 0.241542 0.137257
56 4 0.309732 0.160726 0.043007
57 1 0.849131 0.110666 0.249183
58 2 0.752259 0.121361 0.236897
59 3 0.718795 0.156691 0.189823
60 3 0.711896 0.0555785 0.274648
61 2 0.913102 0.155053 0.214509
62 3 0.997184 0.135002 0.231696
63 3 0.888622 0.192536 0.156988
64 1 0.884228 0.0569378 0.310803
65 2 0.813406 0.0377518 0.358914
66 4 0.852462 0.0380161 0.416308
67 4 0.719171 0.0284963 0.34473
68 2 0.982896 0.0529967 0.332015
69 4 0.0164154 0.0122143 0.38956
70 4 0.0471779 0.0943769 0.296285
71 1 0.911591 0.353503 0.499289
72 2 0.00874656 0.339689 0.514201
73 3 0.057641 0.37534 0.564056
74 3 0.0449525 0.301645 0.478314
75 2 0.853927 0.402429 0.537418
76 3 0.766329 0.410899 0.517468
77 3 0.877102 0.43624 0.593877
78 1 0.86582 0.323057 0.434296
79 2 0.931626 0.293563 0.385468
80 4 0.897854 0.280591 0.327507
81 4 0.0242394 0.283995 0.402151
82 2 0.764944 0.319191 0.422795
83 4 0.726281 0.269704 0.368124
84 4 0.704912 0.361333 0.461188
85 1 0.64922 0.37452 0.254458
86 2 0.752032 0.364627 0.26357
87 3 0.787154 0.30456 0.294497
88 3 0.793535 0.406617 0.227883
89 2 0.586399 0.337965 0.29373
90 3 0.50139 0.333493 0.26959
91 3 0.625568 0.292626 0.345474
92 1 0.605221 0.424622 0.194403
93 2 0.670641 0.442649 0.14285
94 4 0.635788 0.443055 0.0842789
95 4 0.763231 0.458334 0.159371
96 2 0.503951 0.444037 0.18193
97 4 0.464749 0.497757 0.129154
98 4 0.442683 0.391738 0.215252
99 1 0.6136 0.117851 0.00776915
100 2 0.521022 0.129984 0.987269
101 3 0.485453 0.0938518 0.933894
102 3 0.47564 0.171673 0.0238737
103 2 0.674427 0.069389 0.970058
104 3 0.755795 0.0603596 0.997778
105 3 0.646651 0.0338112 0.92532
106 1 0.654256 0.15928 0.0704422
107 2 0.582204 0.192089 0.115179
108 4 0.608915 0.198697 0.175331
109 4 0.492367 0.213069 0.0948768
110 2 0.756036 0.16808 0.0840178
111 4 0.790827 0.23063 0.133557
112 4 0.817428 0.112164 0.053214
113 1 0.354759 0.606654 0.255496
114 2 0.256188 0.616193 0.247588
115 3 0.218761 0.66868 0.200174
116 3 0.218386 0.581791 0.285885
117 2 0.411959 0.626957 0.210143
118 3 0.50255 0.622245 0.225242
119 3 0.365544 0.6602 0.160308
120 1 0.399766 0.563013 0.31695
121 2 0.334883 0.54274 0.370778
122 4 0.365428 0.560777 0.427784
123 4 0.246102 0.51322 0.354317
124 2 0.499488 0.551903 0.329075
125 4 0.533654 0.510212 0.387269
126 4 0.557824 0.585335 0.286142
127 1 0.398587 0.867304 0.491431
128 2 0.496001 0.874861 0.501096
129 3 0.523684 0.906014 0.555469
130 3 0.544735 0.841075 0.461124
131 2 0.337584 0.903258 0.531551
132 3 0.253343 0.887828 0.508766
133 3 0.373079 0.945655 0.584678
134 1 0.358166 0.816366 0.429877
135 2 0.421443 0.801485 0.378083
136 4 0.391359 0.798139 0.318978
137 4 0.51582 0.793492 0.393368
138 2 0.257713 0.800598 0.417054
139 4 0.232762 0.741309 0.365214
140 4 0.192117 0.84079 0.451915
141 1 0.156038 0.88105 0.245689
142 2 0.254782 0.872333 0.248808
143 3 0.282656 0.824027 0.294907
144 3 0.297336 0.927374 0.206472
145 2 0.101085 0.835735 0.288019
146 3 0.0223318 0.841143 0.272969
147 3 0.135394 0.784158 0.338089
148 1 0.108286 0.933603 0.187825
149 2 0.161745 0.950798 0.134588
150 4 0.115736 0.955036 0.0770253
151 4 0.256632 0.970781 0.145272
152 2 0.998931 0.942961 0.180253
153 4 0.961209 0.994108 0.132566
154 4 0.946092 0.889183 0.219333
155 1 0.0957315 0.623487 0.000224165
156 2 0.00074205 0.623042 0.988059
157 3 0.948989 0.594002 0.936486
158 3 0.957472 0.650045 0.02768
159 2 0.158797 0.58602 0.960696
160 3 0.244125 0.587071 0.983139
161 3 0.134378 0.564552 0.902348
162 1 0.131579 0.663068 0.065429
163 2 0.0586622 0.70244 0.111133
164 4 0.0956289 0.71124 0.167964
165 4 0.967587 0.716152 0.093302
166 2 0.228417 0.669349 0.0831737
167 4 0.267108 0.712582 0.141551
168 4 0.292459 0.637419 0.044502
169 1 0.857442 0.594664 0.25526
170 2 0.759776 0.601977 0.241759
171 3 0.726862 0.647297 0.190256
172 3 0.70994 0.567135 0.28092
173 2 0.916407 0.631276 0.21586
174 3 0.0049 0.627181 0.238763
175 3 0.880132 0.666666 0.164315
176 1 0.897312 0.555984 0.319966
177 2 0.828404 0.531921 0.368362
178 4 0.859507 0.540612 0.427909
179 4 0.73504 0.526837 0.350284
180 2 0.997152 0.545388 0.334385
181 4 0.0249629 0.497162 0.390924
182 4 0.0623414 0.583945 0.297966
183 1 0.901506 0.865075 0.488861
184 2 0.00151492 0.855857 0.503707
185 3 0.036016 0.880644 0.546907
186 3 0.0452873 0.810975 0.463895
187 2 0.842533 0.910848 0.526151
188 3 0.758715 0.910571 0.505491
189 3 0.876333 0.94548 0.581406
190 1 0.862921 0.820904 0.427585
191 2 0.931556 0.796708 0.377911
192 4 0.89347 0.800895 0.321148
193 4 0.0237577 0.780968 0.392823
194 2 0.761864 0.808402 0.408795
195 4 0.720313 0.756448 0.358764
196 4 0.703364 0.853957 0.447452
197 1 0.646643 0.886472 0.244281
198 2 0.746397 0.877188 0.25655
199 3 0.774217 0.821052 0.28948
200 3 0.795583 0.930049 0.21639
201 2 0.586387 0.847921 0.28277
202 3 0.50363 0.867684 0.262853
203 3 0.624528 0.802574 0.333079
204 1 0.607862 0.9283 0.1807
205 2 0.673486 0.933176 0.131478
206 4 0.638757 0.912874 0.0730462
207 4 0.768324 0.943652 0.145726
208 2 0.504405 0.944013 0.164244
209 4 0.467666 0.998535 0.111861
210 4 0.442919 0.901444 0.20121
211 1 0.603837 0.626325 0.00607759
212 2 0.506525 0.623818 0.990462
213 3 0.444109 0.592734 0.943256
214 3 0.469744 0.655532 0.0311235
215 2 0.658982 0.587284 0.962274
216 3 0.743278 0.598679 0.984124
217 3 0.628143 0.558235 0.904942
218 1 0.641704 0.669814 0.0684505
219 2 0.571356 0.697412 0.118195
220 4 0.603321 0.711499 0.176063
221 4 0.480225 0.705994 0.103504
222 2 0.738538 0.678814 0.0844498
223 4 0.780629 0.717933 0.144982
224 4 0.798927 0.653424 0.0430947
225 1 0.352889 0.137057 0.750912
226 2 0.258339 0.132176 0.738772
227 3 0.209575 0.149788 0.688591
228 3 0.223608 0.101657 0.789093
229 2 0.410002 0.16731 0.70249
230 3 0.485983 0.189324 0.721898
231 3 0.371205 0.206884 0.651818
232 1 0.39914 0.101179 0.812646
233 2 0.343889 0.068268 0.864432
234 4 0.378885 0.0612705 0.924005
235 4 0.251628 0.0425853 0.851858
236 2 0.505819 0.0782579 0.817124
237 4 0.537942 0.0108314 0.860055
238 4 0.555901 0.117545 0.772295
239 1 0.392615 0.377811 0.00912601
240 2 0.491825 0.373025 0.0258416
241 3 0.521274 0.403814 0.0674026
242 3 0.539738 0.324881 0.98382
243 2 0.33171 0.417269 0.048399
244 3 0.245944 0.409835 0.0299169
245 3 0.372155 0.448597 0.103169
246 1 0.353618 0.333862 0.94472
247 2 0.422523 0.312251 0.898938
248 4 0.398062 0.320938 0.837719
249 4 0.516565 0.296962 0.916214
250 2 0.252611 0.324305 0.927334
251 4 0.219879 0.270583 0.874719
252 4 0.19492 0.362472 0.968667
253 1 0.151462 0.374494 0.754712
254 2 0.246102 0.380754 0.771507
255 3 0.291512 0.360683 0.822401
256 3 0.295815 0.418328 0.728499
257 2 0.0914987 0.336061 0.795661
258 3 0.00471817 0.343612 0.771882
259 3 0.114894 0.298684 0.8505
260 1 0.11431 0.409606 0.687663
261 2 0.179044 0.437219 0.640567
262 4 0.147316 0.442825 0.579813
263 4 0.272764 0.447521 0.659296
264 2 0.0117973 0.423179 0.670903
265 4 0.979773 0.468784 0.615375
266 4 0.950316 0.385702 0.710797
267 1 0.0916107 0.116612 0.50481
268 2 0.995384 0.128017 0.489567
269 3 0.961187 0.0942685 0.449049
270 3 0.953198 0.177013 0.532156
271 2 0.150431 0.0780053 0.464301
272 3 0.235431 0.0772808 0.491485
273 3 0.121566 0.0369668 0.409856
274 1 0.133689 0.159034 0.568078
275 2 0.0672016 0.177181 0.616143
276 4 0.104906 0.190938 0.674852
277 4 0.972989 0.195575 0.600486
278 2 0.234345 0.184425 0.579637
279 4 0.268721 0.243537 0.628315
280 4 0.294606 0.144383 0.540451
281 1 0.847654 0.128663 0.752745
282 2 0.751719 0.118265 0.734809
283 3 0.722412 0.161468 0.68281
284 3 0.701901 0.0876835 0.77142
285 2 0.906978 0.178579 0.713391
286 3 0.992672 0.180292 0.738612
287 3 0.880075 0.212796 0.669706
288 1 0.883339 0.0914453 0.816266
289 2 0.812329 0.0518916 0.865277
290 4 0.837242 0.0458764 0.925183
291 4 0.723304 0.0444221 0.845084
292 2 0.982077 0.0842451 0.831441
293 4 0.0202843 0.0298307 0.887096
294 4 0.0477568 0.128111 0.79871
295 1 0.895953 0.373898 0.00822345
296 2 0.992775 0.371928 0.0177315
297 3 0.0251422 0.39496 0.071337
298 3 0.0391449 0.324227 0.980825
299 2 0.837456 0.407296 0.049302
300 3 0.755139 0.417176 0.0299387
301 3 0.871715 0.432766 0.104057
302 1 0.856598 0.334386 0.943247
303 2 0.921834 0.307841 0.894847
304 4 0.896922 0.313745 0.834128
305 4 0.0128846 0.280107 0.912791
306 2 0.754734 0.33354 0.926783
307 4 0.715385 0.277271 0.877803
308 4 0.704238 0.395583 0.961089
309 1 0.654361 0.376958 0.749167
310 2 0.752134 0.370416 0.759735
311 3 0.790673 0.33876 0.812749
312 3 0.797627 0.414087 0.725744
313 2 0.595799 0.344314 0.791644
314 3 0.5055 0.36201 0.77398
315 3 0.614431 0.313083 0.84745
316 1 0.612775 0.422494 0.687166
317 2 0.682837 0.457553 0.636749
318 4 0.658576 0.474119 0.579801
319 4 0.775738 0.464721 0.656071
320 2 0.516379 0.437514 0.673757
321 4 0.480846 0.483558 0.615309
322 4 0.454023 0.416989 0.717424
323 1 0.590819 0.141326 0.498231
324 2 0.493512 0.149025 0.488759
325 3 0.447088 0.106778 0.449208
326 3 0.460315 0.198926 0.533015
327 2 0.651418 0.0978017 0.457959
328 3 0.733145 0.0990861 0.470468
329 3 0.610458 0.0524968 0.41002
330 1 0.635471 0.180471 0.558464
331 2 0.580236 0.198793 0.612906
332 4 0.618298 0.19746 0.671762
333 4 0.48947 0.231742 0.601584
334 2 0.742565 0.20868 0.563205
335 4 0.772422 0.257374 0.614013
336 4 0.798253 0.170917 0.522244
337 1 0.35698 0.624113 0.743722
338 2 0.258264 0.610142 0.730069
339 3 0.225627 0.644962 0.679926
340 3 0.203407 0.569947 0.764143
341 2 0.415785 0.668734 0.705661
342 3 0.495578 0.672263 0.726771
343 3 0.37629 0.702391 0.648782
344 1 0.39428 0.591113 0.810254
345 2 0.324061 0.567066 0.855976
346 4 0.343972 0.562121 0.918729
347 4 0.233839 0.541241 0.835429
348 2 0.495227 0.586246 0.826404
349 4 0.52558 0.539844 0.882672
350 4 0.554287 0.628284 0.787837
351 1 0.39625 0.870282 0.00238162
352 2 0.491687 0.858601 0.00974525
353 3 0.529627 0.883776 0.0631347
354 3 0.540686 0.823559 0.965236
355 2 0.336315 0.908576 0.0450325
356 3 0.258192 0.908299 0.0267181
357 3 0.372666 0.940763 0.100208
358 1 0.356381 0.838656 0.93634
359 2 0.416558 0.820836 0.8848
360 4 0.374835 0.809971 0.827685
361 4 0.510633 0.808226 0.895822
362 2 0.248179 0.823251 0.928064
363 4 0.222892 0.761742 0.880422
364 4 0.192609 0.853608 0.97075
365 1 0.140388 0.890373 0.742569
366 2 0.234276 0.892847 0.761282
367 3 0.271359 0.857699 0.813859
368 3 0.273508 0.940812 0.721336
369 2 0.0749711 0.842566 0.780356
370 3 0.988203 0.842942 0.753168
371 3 0.104167 0.803453 0.819818
372 1 0.0996938 0.925576 0.679022
373 2 0.17222 0.94484 0.629421
374 4 0.146249 0.934461 0.571128
375 4 0.258879 0.978741 0.649523
376 2 0.00142047 0.935649 0.661798
377 4 0.975648 0.978809 0.603501
378 4 0.93557 0.89531 0.696924
379 1 0.102678 0.624607 0.499311
380 2 0.0067009 0.639702 0.487829
381 3 0.969237 0.59173 0.451872
382 3 0.963511 0.687024 0.531591
383 2 0.156841 0.577558 0.461173
384 3 0.24624 0.583481 0.481134
385 3 0.124636 0.533028 0.40757
386 1 0.145775 0.676223 0.560773
387 2 0.0860228 0.695828 0.614779
388 4 0.119434 0.695354 0.673835
389 4 0.992316 0.711421 0.600871
390 2 0.244192 0.685028 0.574454
391 4 0.284573 0.748475 0.622828
392 4 0.301624 0.642133 0.533465
393 1 0.850917 0.605821 0.747771
394 2 0.756566 0.609859 0.733677
395 3 0.727434 0.664742 0.682565
396 3 0.70283 0.570301 0.771395
397 2 0.910465 0.640385 0.705725
398 3 0.0027645 0.640099 0.727759
399 3 0.880625 0.669214 0.661333
400 1 0.892285 0.567523 0.814088
401 2 0.823277 0.556825 0.861531
402 4 0.847525 0.5583 0.923395
403 4 0.730581 0.547844 0.842799
404 2 0.991537 0.557915 0.829118
405 4 0.0366564 0.518198 0.882788
406 4 0.0517522 0.599474 0.786938
407 1 0.899162 0.856686 0.99142
408 2 0.995772 0.861584 0.00520978
409 3 0.0169859 0.903592 0.0589435
410 3 0.0383711 0.833789 0.963945
411 2 0.83535 0.883538 0.0337789
412 3 0.743455 0.8676 0.0143804
413 3 0.867392 0.915382 0.0778416
414 1 0.863132 0.828075 0.925601
415 2 0.932988 0.8098 0.873872
416 4 0.895268 0.795449 0.818004
417 4 0.0251515 0.798025 0.891487
418 2 0.765346 0.815951 0.910057
419 4 0.731297 0.774312 0.850366
420 4 0.698833 0.838131 0.950093
421 1 0.641695 0.894137 0.743723
422 2 0.741546 0.899384 0.754204
423 3 0.775933 0.853202 0.8003
424 3 0.778599 0.955896 0.714021
425 2 0.589152 0.837293 0.78299
426 3 0.503235 0.847747 0.766594
427 3 0.624887 0.790347 0.835517
428 1 0.600301 0.93704 0.681798
429 2 0.663704 0.961196 0.626954
430 4 0.630951 0.954257 0.568214
431 4 0.754761 0.982852 0.64221
432 2 0.500288 0.940526 0.669018
433 4 0.463175 0.996216 0.616995
434 4 0.443508 0.887666 0.705459
435 1 0.599614 0.644431 0.500335
436 2 0.502229 0.643536 0.490409
437 3 0.479341 0.602085 0.445441
438 3 0.456208 0.676235 0.536701
439 2 0.657854 0.609364 0.45763
440 3 0.735775 0.610213 0.475897
441 3 0.62536 0.568951 0.402517
442 1 0.646833 0.695861 0.559173
443 2 0.592573 0.705046 0.611196
444 4 0.629684 0.713897 0.671542
445 4 0.494991 0.706963 0.601726
446 2 0.755487 0.715081 0.568164
447 4 0.786779 0.774049 0.615332
448 4 0.80987 0.662192 0.533142
ITEM: TIMESTEP
2000
ITEM: NUMBER OF ATOMS
448
ITEM: BOX BOUNDS xy xz yz pp pp pp