LAMMPS data file via write_data, version 15 Apr 2020, timestep = 80000

448 atoms
4 atom types

-1.7028566019759772e-02 1.3896228566019843e+01 xlo xhi
6.4685730114308626e-01 1.2627942698856604e+01 ylo yhi
8.0004048358371804e-01 2.1879869874716618e+01 zlo zhi
-5.7484839652040680e+00 -1.7925988610648100e+00 -3.1167138148696449e-01 xy xz yz

Masses

1 12.0107
2 14.0067
3 1.00794
4 15.9994

Atoms # full

68 1 2 3.8766238782883489e-01 -9.5570324072985036e-01 1.4738970501688089e+00 7.6702788941754187e+00 1 0 0
40 1 2 3.7619793561678500e-01 -2.6700416359710841e+00 5.8276677087845989e+00 4.4798700765134853e+00 0 0 0
33 1 2 -5.1144949455789035e-01 -1.7856277905364157e+00 5.0436573905359952e+00 7.0269649171125561e+00 0 0 0
44 1 2 -5.3800595736454482e-01 -2.0140810919512866e+00 2.2482466667721623e+00 2.1680117412701321e+01 1 0 -1
53 1 4 -4.8221155235535834e-01 -5.8642561619583455e-01 3.4546745935915406e+00 2.8754329934853740e+00 1 0 0
62 1 3 4.1960753025223457e-01 -6.6534468121200896e-01 2.2154431125535141e+00 5.4856730125780464e+00 1 0 0
70 1 4 -4.6440432836845341e-01 -4.5706829925267201e-03 1.6380446391400483e+00 6.7588791015964960e+00 0 0 0
145 1 2 -4.7268106865334941e-01 -5.0867333375718085e+00 1.0640733782581686e+01 6.6767946247192995e+00 0 0 0
147 1 3 4.0902901736686981e-01 -4.6441534875427388e+00 1.0257186060470630e+01 7.8613965997323030e+00 0 0 0
148 1 1 -1.1810484933026183e-01 -4.5447925773535376e+00 1.1671139900131900e+01 4.5094639879378366e+00 0 0 0
158 1 3 3.9379063520046298e-01 -3.6496538124416729e+00 9.3044439571887398e+00 1.6747416806081352e+00 1 0 0
174 1 3 4.1467766641287934e-01 -3.3960195374644089e+00 8.1839565717192073e+00 5.7992889566073265e+00 1 0 0
180 1 2 3.9230386015576957e-01 -3.7722413238495811e+00 7.1207089357216438e+00 7.9389218478213550e+00 1 0 0
181 1 4 -4.7867839400774875e-01 -3.4415269117695741e+00 6.4196750331481001e+00 9.0417509008501256e+00 0 0 0
257 1 2 -5.2145509160256098e-01 -2.6122072205810225e+00 4.4920847879635586e+00 1.7572185841904322e+01 0 0 0
268 1 2 -5.4979780240954645e-01 -1.0567839945821964e+00 2.5219590258710669e+00 1.0951956229350550e+01 1 0 0
277 1 4 -4.4290696510232980e-01 -1.4810014835716576e+00 3.2375251005886332e+00 1.3328203858555085e+01 1 0 0
294 1 4 -4.1169298659759301e-01 -9.1564861090064109e-01 1.5101413441399871e+00 1.7424096289952232e+01 0 0 0
369 1 2 -5.3365089644444663e-01 -5.8938510310690457e+00 1.0566949544987450e+01 1.7272743055139205e+01 0 0 0
371 1 3 4.1972218046699661e-01 -5.5045174934091117e+00 1.0280381190774241e+01 1.8493420359709699e+01 0 0 0
380 1 2 -5.2148042266886041e-01 -3.8918853734474244e+00 8.2386015219437354e+00 1.1226974802616363e+01 1 0 0
381 1 3 4.2267378026691210e-01 -4.3063454710152040e+00 7.8755222559292584e+00 1.0154654985018084e+01 1 0 0
382 1 3 4.0888043608380797e-01 -4.4377275481342577e+00 8.9459868663793447e+00 1.2042332415061725e+01 1 0 0
398 1 3 3.9884855438539918e-01 -4.3442802402193728e+00 7.7156514197159476e+00 1.6326252583088678e+01 1 0 0
405 1 4 -4.8378027943800711e-01 -4.4171259459210779e+00 6.5470286352114702e+00 1.9764681190963756e+01 0 0 0
35 1 3 4.2153996285389239e-01 -1.3996412202725306e+00 4.7131043064448921e+00 8.1990978638074807e+00 0 0 0
156 1 2 -4.8129485979198156e-01 -3.0515957168459926e+00 8.5198356701678613e+00 9.0989639363219665e-01 1 0 0
165 1 4 -4.6415825205383526e-01 -3.4669225256505536e+00 9.3600180573368945e+00 3.1933749407593579e+00 1 0 0
182 1 4 -4.2671795450222638e-01 -2.8307461920330068e+00 7.5221998055474657e+00 7.0659991113181437e+00 0 0 0
372 1 1 -1.0916683961713099e-01 -5.4973260544640814e+00 1.1329457785088199e+01 1.5033208860904864e+01 0 0 0
389 1 4 -4.8551483438736009e-01 -4.2724227178534147e+00 9.1937717599631323e+00 1.3573785057368697e+01 1 0 0
406 1 4 -4.6161399364525163e-01 -3.6968362054177613e+00 7.2520513569308189e+00 1.7631426742420064e+01 0 0 0
141 1 1 4.3572595591906776e-01 -4.1077112292460436e+00 1.1034080227591174e+01 5.7865935817569056e+00 0 0 0
150 1 4 -4.4628033063132483e-01 -3.9012317468024129e+00 1.1910472910631379e+01 2.1899592875652454e+00 0 0 0
259 1 3 4.3006211052008791e-01 -2.1800071232778535e+00 4.2412367122404859e+00 1.8699865247944949e+01 0 0 0
365 1 1 5.1028608387570540e-01 -5.0418919048797033e+00 1.0861580013192771e+01 1.6371205691423235e+01 0 0 0
374 1 4 -4.5764075143534361e-01 -4.8966625479859829e+00 1.1712311346579975e+01 1.2696695381040964e+01 0 0 0
404 1 2 4.1989772942928316e-01 -4.6429181926759817e+00 7.1196507857192568e+00 1.8533911320799298e+01 1 0 0
157 1 3 4.2401015735286979e-01 -5.2784268507809688e+00 7.7642856608618152e+00 2.0875086083042017e+01 1 0 0
286 1 3 4.1071630542893234e-01 -1.5060621511443060e+00 2.1842321350132963e+00 1.6206485111713164e+01 1 0 0
293 1 4 -4.5331220775077619e-01 -1.5631556275742067e+00 5.6938153645323997e-01 1.9554177599708051e+01 0 0 0
69 1 4 -4.6136300520435536e-01 -7.0594795324314064e-01 9.6185809667528788e-01 8.9774456672692882e+00 0 0 0
46 1 3 4.1694540284356979e-01 -9.0459591240908865e-01 3.1914800217052948e+00 1.3460564624920131e+00 1 0 0
270 1 3 3.9191680346870200e-01 -1.5990649793297016e+00 3.3495608706393427e+00 1.1779698136939771e+01 1 0 0
27 1 4 -4.7331146833424781e-01 -3.3643781486365909e-01 3.8035306149931909e+00 8.7884793892206154e+00 0 0 0
29 1 1 4.6573745125843141e-01 -8.3543045154284690e-01 5.1982199875510400e+00 6.0663177898940104e+00 0 0 0
36 1 1 -1.2092335235324653e-01 -1.3269100138810395e+00 5.6686184204971388e+00 4.7285064193122963e+00 0 0 0
38 1 4 -4.5045439218559491e-01 -5.8596616922916156e-01 6.2352528247850199e+00 2.4715564840134006e+00 0 0 0
43 1 1 4.7764609879408981e-01 1.0777645391847901e+00 2.2140223565883641e+00 8.7999230884461832e-01 0 0 0
47 1 2 -4.7518319306701229e-01 1.5080137142913608e-01 1.3125169255567137e+00 2.1112236566363741e+01 0 0 0
49 1 3 4.3748590130367621e-01 -1.8224897777217608e-01 1.0213308615394272e+00 1.9880373582629744e+01 0 0 0
51 1 2 4.7308753188699360e-01 6.2605662739129087e-01 3.1641299912619942e+00 3.2617167623302383e+00 0 0 0
52 1 4 -4.8854790245393481e-01 9.1206335341613187e-01 3.1079062455478432e+00 4.5177983620214244e+00 0 0 0
139 1 4 -4.9940199680891784e-01 -3.4394918789143674e+00 9.6224079062093040e+00 8.4606491344456956e+00 0 0 0
149 1 2 4.1335973205904003e-01 -3.5498838285112555e+00 1.1884355912653092e+01 3.4522548655128333e+00 0 0 0
161 1 3 4.2899787667757144e-01 -3.0069460488389925e+00 6.7329717566122786e+00 2.0175607873289039e+01 0 0 0
251 1 4 -4.5392746233361952e-01 -9.7781799515743195e-01 3.4117663927862720e+00 1.9152078563198653e+01 0 0 0
253 1 1 4.8595554350076442e-01 -1.7130180345713637e+00 4.9486765085943700e+00 1.6696633701966721e+01 0 0 0
260 1 1 -1.3058861873572142e-01 -2.0829658783494889e+00 5.3338142601872987e+00 1.5279109204936486e+01 0 0 0
261 1 2 4.2787173623037761e-01 -1.1228013007934554e+00 5.6128236650820540e+00 1.4231074661293428e+01 0 0 0
262 1 4 -4.7125589511300620e-01 -1.3899588659177051e+00 5.6016966082171500e+00 1.2930178397535032e+01 0 0 0
267 1 1 4.7308695278512686e-01 2.3457361012871414e-01 2.2284290515862493e+00 1.1291296379280231e+01 0 0 0
271 1 2 -5.0874251699801509e-01 1.0684077087432251e+00 1.5127539679051623e+00 1.0536738719778246e+01 0 0 0
273 1 3 4.3306415117717229e-01 7.5325082057895865e-01 1.1124668571519094e+00 9.3628036395801733e+00 0 0 0
274 1 1 -1.2063968482819831e-01 6.8256681244514650e-01 2.5542292094571519e+00 1.2684863047543628e+01 0 0 0
275 1 2 4.3245599160659920e-01 -2.5563122068465227e-01 2.8871139364153842e+00 1.3714739355562099e+01 0 0 0
363 1 4 -4.8597834528879708e-01 -4.3247538600117288e+00 9.5123131329658133e+00 1.9044195552508704e+01 0 0 0
373 1 2 4.5365807246814838e-01 -4.4792664837121041e+00 1.1618449294881234e+01 1.3899643459786152e+01 0 0 0
379 1 1 4.6398920284140166e-01 -2.6144848596241483e+00 7.9338538420192810e+00 1.1538830420413412e+01 0 0 0
385 1 3 4.3467907992434024e-01 -2.0553696114087874e+00 6.7364363053469045e+00 9.4962868278742185e+00 0 0 0
26 1 2 3.5419152372604518e-01 2.6052467913882493e-01 4.4751697737520093e+00 9.7858166405992204e+00 0 0 0
28 1 4 -4.5157312860275628e-01 -5.3252840682066804e-01 5.1534550646877193e+00 1.0604352112459841e+01 0 0 0
37 1 2 4.3428125156842140e-01 -2.7201899685440922e-01 6.0043780409466025e+00 3.6423980055300333e+00 0 0 0
50 1 1 -1.1664986975907307e-01 1.5232126710997305e+00 2.7198629611070282e+00 2.1875857813973907e+00 0 0 0
138 1 2 4.0129958871956983e-01 -2.9976258749157392e+00 1.0436191826076044e+01 9.4930960504594069e+00 0 0 0
140 1 4 -4.6000370410646074e-01 -3.8644510061736828e+00 1.0843080062888506e+01 1.0347766427033267e+01 0 0 0
142 1 2 -5.5499688394954394e-01 -2.7906764711560603e+00 1.0825726232289661e+01 6.0804799848828033e+00 0 0 0
155 1 1 4.6064822534944155e-01 -1.7143055717127433e+00 8.3856802374680441e+00 1.0939496750989151e+00 0 0 0
159 1 2 -4.7890168506355857e-01 -2.7998387048186242e+00 7.3156944393913337e+00 2.1345570868535908e+01 0 0 0
162 1 1 -1.1847732961090354e-01 -1.1987065874417451e+00 8.9821789454702969e+00 2.3757478728141570e+00 0 0 0
163 1 2 4.3290505887006137e-01 -2.2022507277960939e+00 9.1077575813572924e+00 3.4398794625649565e+00 0 0 0
164 1 4 -4.4464133266645017e-01 -1.7522819174351474e+00 9.0148476320228816e+00 4.6751225786733874e+00 0 0 0
250 1 2 3.4832561869405004e-01 -5.8617835699244725e-01 4.0290227540944112e+00 2.0298688498526371e+01 0 0 0
252 1 4 -4.7647052963254766e-01 -1.4654267819028139e+00 4.6435297831083666e+00 2.1062315922242011e+01 0 0 0
276 1 4 -4.6602873779207837e-01 -3.1074095584684658e-02 2.7480503883684024e+00 1.5014963897316232e+01 0 0 0
362 1 2 3.8038017534148599e-01 -3.8379259282735019e+00 1.0260407780585213e+01 2.0079183507558284e+01 0 0 0
364 1 4 -4.4997690600895773e-01 -4.6754878835977234e+00 1.0874923493001093e+01 2.0888173391826129e+01 0 0 0
366 1 2 -6.2595085145523932e-01 -3.6633243474370358e+00 1.0949743092575636e+01 1.6587070764735088e+01 0 0 0
383 1 2 -4.7420487209179130e-01 -1.8049398319864809e+00 7.2516816889910203e+00 1.0692017179777848e+01 0 0 0
387 1 2 4.4386879600274626e-01 -3.0406784353524960e+00 8.8748918075876517e+00 1.3915447126133872e+01 0 0 0
388 1 4 -4.6215788246738426e-01 -2.7095487668566536e+00 8.7944823511972530e+00 1.5176736658901003e+01 0 0 0
30 1 2 -5.2097055014155325e-01 4.5097134678332251e-01 5.0043790493211375e+00 6.3273979063887165e+00 0 0 0
254 1 2 -5.4220536366834560e-01 -4.2608782393725630e-01 5.0779124282408983e+00 1.6988137726555252e+01 0 0 0
292 1 2 3.7499733837569077e-01 -1.8420284686941715e+00 1.1567864556555596e+00 1.8323316730351134e+01 1 0 0
269 1 3 4.6337060431021115e-01 -1.2434574507777598e+00 2.1262081024334414e+00 9.9828648992668043e+00 1 0 0
45 1 3 4.4582259550839759e-01 -2.3045865935910732e+00 1.8583816826373496e+00 2.0648631818111912e+01 1 0 0
297 1 3 4.3837521835832383e-01 -2.2678575643080849e+00 5.4898113690256212e+00 2.1060326802140139e+00 0 0 0
73 1 3 4.2969473360924221e-01 -2.7216327973290144e+00 5.1539615364290077e+00 1.2513290863780497e+01 0 0 0
264 1 2 4.1160603623128611e-01 -3.4469166278325236e+00 5.6010663633121682e+00 1.4889515913016462e+01 0 0 0
265 1 4 -4.8774040869759150e-01 -3.7089119832324284e+00 6.2236616998578942e+00 1.3746729425653808e+01 1 0 0
41 1 4 -4.6819270822617703e-01 1.0859255438132362e+01 6.3507374191346511e+00 3.1599487599227456e+00 0 0 0
4 1 3 4.1575211284073543e-01 2.1605409449751098e+00 1.4662676201695342e+00 6.6974156903859701e+00 0 0 0
11 1 4 -4.6635011505778312e-01 2.5314431181218864e+00 8.2976974827458982e-01 8.0801852860383576e+00 0 0 0
48 1 3 3.9781915224521636e-01 1.3031076607985612e+00 1.1715943245989420e+00 2.1581958599680107e+01 0 0 0
132 1 3 3.9880030170890624e-01 -3.0460927363094825e+00 1.1528877231277425e+01 1.1544350134174266e+01 0 0 0
228 1 3 4.4396451198989256e-01 1.3132374486376952e+00 1.2260092083897791e+00 1.6911242185212011e+01 0 0 0
235 1 4 -4.3356704070263274e-01 1.3453747250041495e+00 9.3038968021354229e-01 1.8461938785777935e+01 0 0 0
272 1 3 3.8905093118362882e-01 2.0105938487372903e+00 1.1964731465580041e+00 1.1247050337114965e+01 0 0 0
367 1 3 4.4002484291700750e-01 -3.4147170493933308e+00 1.0266644495244652e+01 1.7571882632531992e+01 0 0 0
386 1 1 -1.3189045947123804e-01 -2.1448124597519405e+00 8.4313038056211767e+00 1.2840959044509392e+01 0 0 0
2 1 2 -5.2151381089576321e-01 2.8621400991427306e+00 2.0737202777811801e+00 5.9319427691483115e+00 0 0 0
3 1 3 4.1377597271806577e-01 2.2313931198431396e+00 2.4334364392998955e+00 4.8861982363935139e+00 0 0 0
20 1 3 4.0747891976105649e-01 2.4840476653297905e-01 5.8067735044028668e+00 1.1789766264667602e+01 0 0 0
31 1 3 4.0084588187336301e-01 8.5352520439915358e-01 4.6716980825866106e+00 7.5215602466202922e+00 0 0 0
32 1 3 4.3917050738241786e-01 1.1690247810687120e+00 5.2563378272039882e+00 5.3966890157323011e+00 0 0 0
39 1 4 -4.8699698030452754e-01 9.8015111152215328e-01 6.1127695659095656e+00 4.0913950586143137e+00 0 0 0
54 1 2 3.6830121100634861e-01 2.9758119591545840e+00 2.8118236029097363e+00 2.4001454674302796e+00 0 0 0
115 1 3 4.1189844009447124e-01 -3.8034014280394607e-01 8.3372210377161053e+00 4.8648319481991571e+00 0 0 0
116 1 3 3.9886989225467351e-01 -4.9303078190133998e-01 7.4236179039622812e+00 6.8685179584523190e+00 0 0 0
123 1 4 -4.7968480026574944e-01 -3.7840035880696221e-01 7.1420862970800805e+00 8.3861755382749159e+00 0 0 0
134 1 1 -1.1423854729555101e-01 -1.6155406189458668e+00 1.0475029114002879e+01 9.7723275916701926e+00 0 0 0
143 1 3 4.5172125167710853e-01 -2.5944082100001236e+00 1.0315618285504213e+01 7.0558356151467434e+00 0 0 0
144 1 3 4.2845855684879486e-01 -2.1557698898168889e+00 1.1369133229351839e+01 5.1922466967657854e+00 0 0 0
151 1 4 -4.5854300413791971e-01 -2.2861975338242688e+00 1.2012932051084436e+01 3.7814626073829389e+00 0 0 0
160 1 3 3.9559035391387298e-01 -1.6145614921796658e+00 7.3158171612987388e+00 2.1681535214247106e+01 0 0 0
226 1 2 -5.7337163121388357e-01 1.9592886023118492e+00 1.7215202905112534e+00 1.6228132315842021e+01 0 0 0
227 1 3 4.1822173916034516e-01 1.3712984731787154e+00 2.1636869377000987e+00 1.5186346811454033e+01 0 0 0
244 1 3 4.0088710887234880e-01 1.0402855949845602e+00 5.6827683922824255e+00 1.1414115305721060e+00 0 0 0
255 1 3 4.0638857718268506e-01 6.5649975676014050e-02 4.6889401507687953e+00 1.8120385257811265e+01 0 0 0
263 1 4 -4.7863095016020135e-01 1.2205946198973039e-01 5.8669811175311315e+00 1.4602025808054460e+01 0 0 0
278 1 2 3.6545168395199545e-01 2.1219985809366189e+00 2.5427204449083369e+00 1.2986351112672256e+01 0 0 0
340 1 3 4.1295628651767963e-01 -1.4434990245904757e+00 7.3372220885788977e+00 1.7537922102177838e+01 0 0 0
347 1 4 -4.8881310972143982e-01 -1.2327222560802644e+00 6.9330047035493756e+00 1.9031179755049759e+01 0 0 0
356 1 3 3.9462020520210428e-01 -2.0591196281034980e+00 1.1883008704070287e+01 9.2719684562352478e-01 0 0 0
358 1 1 -1.2118767029687599e-01 -2.4784180447367756e+00 1.0286994266040120e+01 2.0374221890717294e+01 0 0 0
368 1 3 4.7095133189355337e-01 -3.0508655041851558e+00 1.1113180535561664e+01 1.5746691003819071e+01 0 0 0
375 1 4 -4.7200060800617627e-01 -3.2675832538957388e+00 1.1880224888736947e+01 1.4277542052755640e+01 0 0 0
384 1 3 3.9653614518673802e-01 -6.9350309922867825e-01 7.3089155283222560e+00 1.1122074481855066e+01 0 0 0
114 1 2 -5.2350457474905010e-01 1.3185145193642334e-01 7.9952526138421058e+00 5.9323432981115065e+00 0 0 0
131 1 2 -4.9699492428206704e-01 -1.9590694264465689e+00 1.1484804230187393e+01 1.1963062308817561e+01 0 0 0
136 1 4 -4.0194556059455117e-01 -1.0189164801222614e+00 9.9923846005957859e+00 7.5034887647861490e+00 0 0 0
166 1 2 3.9340718995815049e-01 2.2843558683042639e-01 8.8854333801646970e+00 2.5930215770342864e+00 0 0 0
338 1 2 -5.2079040396359622e-01 -8.6212543933897012e-01 7.7733960335061552e+00 1.6540544502848959e+01 0 0 0
339 1 3 4.2251984131152492e-01 -1.3697575543853198e+00 8.1454922092699888e+00 1.5463460514243550e+01 0 0 0
355 1 2 -5.0226373698467874e-01 -9.2667800905951070e-01 1.1815926048541884e+01 1.4009427630381972e+00 0 0 0
360 1 4 -4.3752663828996252e-01 -1.9823441063161209e+00 9.7883531641395667e+00 1.8090271526121906e+01 0 0 0
390 1 2 3.7969641464167608e-01 -7.1418309252835011e-01 8.4951430441969045e+00 1.3117448649083951e+01 0 0 0
298 1 3 4.2109816639123743e-01 1.0173272456201973e+01 4.2568167499809437e+00 2.1394769375327751e+01 -1 0 0
22 1 1 -1.2391128670403788e-01 1.6678599836486874e+00 4.4727297885192812e+00 1.0037373716887098e+01 0 0 0
256 1 3 4.1699608342791067e-01 2.9487600407824477e-01 5.4384056316282843e+00 1.6065116275533953e+01 0 0 0
1 1 1 4.9210004288180687e-01 4.1988764522979096e+00 2.0509812705571475e+00 6.0500974929202247e+00 0 0 0
9 1 2 4.0937507337815926e-01 3.7642516428046746e+00 1.1513019476911124e+00 8.4384959983800734e+00 0 0 0
10 1 4 -4.1647567925541118e-01 4.1950029420960115e+00 1.1745334169536905e+00 9.7122755470030206e+00 0 0 0
15 1 1 4.9732109683776404e-01 2.1633302819359668e+00 4.9800405597958592e+00 1.1399752738940904e+01 0 0 0
19 1 2 -4.7414726684812836e-01 1.4156595052832643e+00 5.6737754045684623e+00 1.2234975434931464e+01 0 0 0
21 1 3 4.4519425894097120e-01 1.7189977440994593e+00 6.1519089170227028e+00 1.3390039484107165e+01 0 0 0
23 1 2 4.3165494945908356e-01 2.5644721509093040e+00 4.0023229050486933e+00 9.0077566902448591e+00 0 0 0
24 1 4 -4.1547455483782736e-01 2.1417654535009332e+00 3.9072413837419915e+00 7.7394419513465529e+00 0 0 0
55 1 4 -4.5583931177938880e-01 3.3699885131514198e+00 3.4365305667156751e+00 3.5133069434762416e+00 0 0 0
56 1 4 -4.7836157540492996e-01 3.8554456284536216e+00 2.1354914422154496e+00 1.6769627646631031e+00 0 0 0
121 1 2 4.2037260796064474e-01 8.9017597620349409e-01 7.3551238730365469e+00 8.6768104301562747e+00 0 0 0
127 1 1 4.6798042855944755e-01 -1.0827658664087954e+00 1.0860172353152608e+01 1.1126676427220126e+01 0 0 0
133 1 3 4.4299445716868729e-01 -1.5883097143902123e+00 1.1908544031081496e+01 1.3159091209500643e+01 0 0 0
135 1 2 4.3326995915164662e-01 -6.0700842042724223e-01 1.0079174034025172e+01 8.7310295097846566e+00 0 0 0
168 1 4 -4.3907437838503305e-01 1.0284302557346889e+00 8.2726334639165575e+00 1.7761188296437884e+00 0 0 0
225 1 1 5.2108076903120704e-01 3.2972469164874614e+00 1.7631893764159736e+00 1.6514633961267418e+01 0 0 0
232 1 1 -1.2427988889482999e-01 3.6711933606867913e+00 1.3076588133081239e+00 1.7873197959571602e+01 0 0 0
233 1 2 4.2866830878294554e-01 2.5940116546030287e+00 1.0554631601658906e+00 1.8903000614425750e+01 0 0 0
234 1 4 -4.7123258366675286e-01 2.8006269729929256e+00 1.0435017636816724e+00 2.0164548673460093e+01 0 0 0
239 1 1 5.0532513736056450e-01 3.0030158111208856e+00 5.1535019572759113e+00 8.0878879024661288e-01 0 0 1
243 1 2 -5.0530462741594206e-01 2.1803776621479103e+00 5.8343597517349028e+00 1.5782338687299799e+00 0 0 0
245 1 3 4.5192095682460193e-01 2.3630638532118220e+00 6.3611320420033817e+00 2.7354712650724200e+00 0 0 0
246 1 1 -1.2096815544687657e-01 7.9799745154110480e-01 4.1640785983942372e+00 2.0568931798376198e+01 0 0 0
247 1 2 4.1907908892192758e-01 1.7971724169101395e+00 3.9904280633433165e+00 1.9516475393805511e+01 0 0 0
248 1 4 -4.3991979674339154e-01 1.4373373949360349e+00 4.1056105002807826e+00 1.8228838499394257e+01 0 0 0
279 1 4 -4.5018539970487498e-01 2.5315694931896742e+00 3.2708868221099197e+00 1.4018395221777563e+01 0 0 0
280 1 4 -4.4182693069664847e-01 2.9577203383889090e+00 1.7908727245008464e+00 1.2321706979123141e+01 0 0 0
345 1 2 4.3256734596414914e-01 1.6176653865346724e-02 7.1430920965642244e+00 1.9314266599288217e+01 0 0 0
351 1 1 4.7632526849701440e-01 -1.9275964164365091e+00 1.0783415379435207e+01 2.1708008245822555e+01 0 0 0
357 1 3 4.4505035871929960e-01 -6.2416594456107855e-01 1.2445740457879772e+01 2.5198181296753179e+00 0 0 0
359 1 2 4.5985471630675850e-01 -1.5202490454734825e+00 9.8951112918991413e+00 1.9275107391143646e+01 0 0 0
391 1 4 -4.7632771367410959e-01 -2.2438492212628125e-01 9.0855287299017906e+00 1.4209353395253972e+01 0 0 0
392 1 4 -4.6338632675247804e-01 1.4357603696036747e-01 7.9794969535909388e+00 1.2286744106813456e+01 0 0 0
74 1 3 3.8344710409080884e-01 1.1009897549771420e+01 3.7636720281039597e+00 1.0726997244423773e+01 -1 0 0
7 1 3 4.3001923601135444e-01 4.6984698279982915e+00 2.8874307076750196e+00 3.9199109012867206e+00 0 0 0
8 1 1 -1.0982420160531831e-01 4.6989423277880942e+00 1.4480879865637841e+00 7.3345703917862961e+00 0 0 0
113 1 1 4.8304181141265173e-01 1.4482118089196303e+00 8.0083343822880586e+00 6.1809344271565916e+00 0 0 0
122 1 4 -4.4121939149411804e-01 1.2597116496382923e+00 7.3703929424211543e+00 9.9413119705541959e+00 0 0 0
167 1 4 -4.8741425823314949e-01 6.7807344928367397e-01 9.5047649776304048e+00 3.6776015593820208e+00 0 0 0
210 1 4 -4.4860460696148347e-01 -2.0939862628256201e-02 1.1709321247197552e+01 5.0884041760557217e+00 0 0 0
231 1 3 4.3427107821432520e-01 3.8546063757106053e+00 2.7133609377369940e+00 1.4584915361164242e+01 0 0 0
337 1 1 4.6026570589869198e-01 4.6158529687376904e-01 7.7281831810793049e+00 1.6811759741680486e+01 0 0 0
346 1 4 -4.1886225415369099e-01 3.7575893410546835e-01 7.2689922110094241e+00 2.0549435365683514e+01 0 0 0
361 1 4 -4.7102461743852725e-01 -2.7231613720415293e-01 9.6475465379384833e+00 1.9597360403472258e+01 0 0 0
434 1 4 -4.4561074323777439e-01 -9.2396765567670158e-01 1.1238369614244618e+01 1.5708478162383811e+01 0 0 0
5 1 2 -4.9381578361492035e-01 5.0428268141219306e+00 2.4646368933511846e+00 5.1095047006431393e+00 0 0 0
16 1 2 -5.1666696937597745e-01 3.4162223779187917e+00 4.6136104567194032e+00 1.1661367318202092e+01 0 0 0
25 1 4 -4.7604059639464547e-01 3.8106329721842434e+00 3.7645017388486344e+00 9.3024747590128776e+00 0 0 0
90 1 3 4.0108576105326382e-01 4.1215073062008889e+00 4.7192952956660266e+00 6.4673635633494042e+00 0 0 0
97 1 4 -4.6691876652856490e-01 3.7117641932798375e+00 6.5400379818372443e+00 3.4207254089883250e+00 0 0 0
98 1 4 -4.5218815629045533e-01 3.2813889218113292e+00 5.3690791497086225e+00 5.3345686328826059e+00 0 0 0
101 1 3 4.4735462676045995e-01 4.2649308613908019e+00 1.6106160583659948e+00 2.0676159467377058e+01 0 0 0
117 1 2 -4.9428545159095327e-01 2.3547553072518124e+00 8.4823262737613980e+00 5.3255860155739656e+00 0 0 0
119 1 3 4.3256564639339884e-01 1.8985422382172328e+00 8.7424130700592304e+00 4.2003551178535350e+00 0 0 0
120 1 1 -1.2647922488012669e-01 1.8485295532902675e+00 7.5189410587313832e+00 7.5568843726327488e+00 0 0 0
128 1 2 -4.9256553135922515e-01 1.8656457217795497e-01 1.0668802946216339e+01 1.1412906481550085e+01 0 0 0
129 1 3 4.1400533348105789e-01 5.7356872951214832e-01 1.0959869999607745e+01 1.2576513334839603e+01 0 0 0
130 1 3 4.0333221720758927e-01 7.7136192414257299e-01 9.9278873139456820e+00 1.0586239243786180e+01 0 0 0
137 1 4 -4.4024486979090410e-01 6.5290471753025603e-01 9.8983365795729199e+00 9.0158318400371318e+00 0 0 0
202 1 3 4.2337601903806310e-01 6.0754571338055019e-01 1.0787966905769995e+01 6.0704978299330445e+00 0 0 0
209 1 4 -4.7167693176035796e-01 6.4087737778738152e+00 7.4716084691549389e-01 3.1563320456539397e+00 0 1 0
229 1 2 -5.3875658742455912e-01 4.2323132101439969e+00 2.2624054697076543e+00 1.5702468815401147e+01 0 0 0
236 1 2 4.1601617834968524e-01 5.0048744213132812e+00 1.0977370015896324e+00 1.8280047507798134e+01 0 0 0
240 1 2 -5.2342281618282060e-01 4.2924635405757394e+00 5.0337497661412023e+00 1.0452807927447019e+00 0 0 1
249 1 4 -4.4520680014240360e-01 3.0809746331361074e+00 3.8712907836056312e+00 1.9815744679459776e+01 0 0 0
314 1 3 4.0788066710245208e-01 3.0617888687431898e+00 4.6923009025672942e+00 1.6914939981287741e+01 0 0 0
322 1 4 -4.3802277130640738e-01 2.4948183147252827e+00 5.3719839907624793e+00 1.5723732589949227e+01 0 0 0
325 1 3 4.1216522524795018e-01 5.4235176501372919e+00 2.0647613699752840e+00 9.8943263109150692e+00 0 0 0
341 1 2 -5.1871082105400823e-01 1.4011206999417722e+00 8.1703946290794285e+00 1.5939308656360094e+01 0 0 0
343 1 3 4.2530680363011680e-01 1.0477447051723501e+00 8.3483640287159773e+00 1.4738514094815256e+01 0 0 0
344 1 1 -1.3839904795309055e-01 9.6459886101307446e-01 7.3035168001283379e+00 1.8144675616146522e+01 0 0 0
352 1 2 -5.2670067833552348e-01 1.1610139929188670e+00 1.0871871384814531e+01 8.8862073752784732e-01 0 0 1
354 1 3 4.1396315202364026e-01 -3.9144251226501448e-02 9.9148111259870113e+00 2.1170730235508991e+01 0 0 0
426 1 3 4.0657958971672858e-01 -1.0354079761445245e-01 1.0558494534119427e+01 1.6859242286898183e+01 0 0 0
433 1 4 -4.5163630468617660e-01 -2.7342760774516250e-01 1.2262348409555756e+01 1.3747605238947816e+01 0 0 0
18 1 3 3.7639906801477624e-01 3.9262925587532655e+00 3.8221535682033450e+00 1.0852160711963567e+01 0 0 0
102 1 3 3.8981909379168883e-01 6.1291296559722515e+00 2.9882232424026829e+00 1.3749253052977388e+00 0 0 0
208 1 2 4.0055469732648397e-01 9.5733433457969019e-01 1.1944719878105472e+01 4.2409529475006753e+00 0 0 0
237 1 4 -4.7352078253119928e-01 5.3004369919016074e+00 5.0073855334294159e-01 1.9444228578264472e+01 0 0 0
326 1 3 3.9505202186768018e-01 5.2729379354745376e+00 2.8747907209796599e+00 1.1791187472867628e+01 0 0 0
353 1 3 4.1453660475017023e-01 1.5988958278964023e+00 1.1340385436506018e+01 1.9707450479465718e+00 0 0 0
432 1 2 4.0057223196638442e-01 1.7031829562045520e-02 1.1549343429013653e+01 1.4874284568787866e+01 0 0 0
12 1 2 3.8962889434259690e-01 6.0852250553935843e+00 1.2468142328467848e+00 7.6019378023816113e+00 0 0 0
321 1 4 -4.8140706502442060e-01 3.1337284767065601e+00 6.4654883250132533e+00 1.3801626733671624e+01 0 0 0
6 1 3 4.0028537148640703e-01 6.2041996324214077e+00 2.3073932798695438e+00 5.5472612693978478e+00 0 0 0
13 1 4 -4.3173889159586037e-01 6.7363649202194453e-01 1.2477952311909624e+01 8.6915631792319434e+00 0 -1 0
17 1 3 4.1616928772285577e-01 4.1347560756609516e+00 5.0748704814608052e+00 1.2602655257432522e+01 0 0 0
96 1 2 4.3064722351537382e-01 4.1367716749719676e+00 5.8170390617576224e+00 4.4701133331136713e+00 0 0 0
100 1 2 -5.5327398013630424e-01 4.8976131144767603e+00 2.0505154702494832e+00 2.1508604283187040e+01 0 0 -1
109 1 4 -4.6322848056663163e-01 6.3776552573216918e+00 3.3601144293207206e+00 2.8342356319845483e+00 0 0 0
201 1 2 -6.1676646063598994e-01 1.7839963507971450e+00 1.0721383029489481e+01 6.6389158954758960e+00 0 0 0
213 1 3 4.3823073367663523e-01 1.8085038631333554e+00 7.9639200689485232e+00 2.0660660262324090e+01 0 0 0
214 1 3 4.0130263163381508e-01 3.4940974041256725e+00 9.3061713460922721e+00 1.5395226862367846e+00 0 0 0
230 1 3 4.2495918686440376e-01 5.3352407500186292e+00 2.2034848388028969e+00 1.6165204882883152e+01 0 0 0
241 1 3 4.2509444718738149e-01 4.7208708027743169e+00 5.6022788101970695e+00 2.0424316034485628e+00 0 0 0
242 1 3 3.9892243659196563e-01 3.2499312942538743e+00 4.0637067897442209e+00 2.1316638604170937e+01 0 0 0
320 1 2 3.9482645894794721e-01 3.4763136097648237e+00 5.7749252387418153e+00 1.4896841637303961e+01 0 0 0
324 1 2 -4.9672599782697707e-01 5.9365757166723734e+00 2.3163274861399059e+00 1.0997376741919618e+01 0 0 0
348 1 2 4.0164902062615226e-01 2.3168870107787054e+00 7.0972407484709654e+00 1.8479362791576893e+01 0 0 0
349 1 4 -4.6443297466757505e-01 2.5478968628826029e+00 6.6089537383644466e+00 1.9723382980099402e+01 0 0 0
437 1 3 4.1431543217987421e-01 2.6901450118653769e+00 7.8628016161198664e+00 1.0147124667668660e+01 0 0 0
14 1 4 -4.3430477255180666e-01 6.9838948870819424e+00 1.7443563428289617e+00 6.8032481435830734e+00 0 0 0
85 1 1 4.8801505553856073e-01 6.0757309814617617e+00 5.2009146320496455e+00 6.0932989351920881e+00 0 0 0
89 1 2 -5.1595807754559819e-01 5.2352927949578749e+00 4.6725661105045777e+00 6.9714735325742003e+00 0 0 0
91 1 3 4.2815579468558479e-01 5.5425924573182801e+00 4.3633745892331444e+00 8.2214894229959512e+00 0 0 0
92 1 1 -1.4787412991929838e-01 5.5631053078507744e+00 5.6630665646570169e+00 4.7515856068022533e+00 0 0 0
99 1 1 5.1153357627478280e-01 6.2135039106711840e+00 1.8684253297955427e+00 2.1807490700667383e+01 0 0 -1
105 1 3 4.4404139341168347e-01 6.7156813117037100e+00 8.2276442875933298e-01 1.9781209699390292e+01 0 0 0
107 1 2 4.2199584135463020e-01 7.6626363282426180e+00 3.1382877924940082e+00 3.1141314533046893e+00 0 0 0
118 1 3 4.1482097389566008e-01 3.5188734438925513e+00 8.1640730824714431e+00 5.7610621216136355e+00 0 0 0
124 1 2 3.9366205357022960e-01 3.1769825654619401e+00 7.1849225913074655e+00 7.8241253805129558e+00 0 0 0
125 1 4 -4.7460306057106927e-01 3.4285947292208387e+00 6.4689855454268841e+00 8.9689818030707755e+00 0 0 0
126 1 4 -4.4123267443977465e-01 4.1486440085291774e+00 7.5234809582778936e+00 6.9763583047323259e+00 0 0 0
195 1 4 -4.4316202574743813e-01 3.4265105296312575e+00 9.6793151118250673e+00 8.6766000669381675e+00 0 0 0
196 1 4 -4.5545361391551475e-01 3.0127734650028550e+00 1.0645367828872770e+01 1.0691032421152116e+01 0 0 0
197 1 1 5.2590045647644601e-01 2.7476206397513767e+00 1.1222396479098247e+01 5.8411685978787684e+00 0 0 0
203 1 3 4.6228857010562047e-01 2.0189131806156482e+00 1.0529848366385947e+01 7.6047363655522693e+00 0 0 0
204 1 1 -1.2861079475566090e-01 2.3325295223172819e+00 1.1685516448603954e+01 4.4804387462482822e+00 0 0 0
205 1 2 4.1718600572920511e-01 3.3606868897761841e+00 1.1910279034585812e+01 3.4249725271260525e+00 0 0 0
206 1 4 -4.4374786194232174e-01 3.0345528157612573e+00 1.1862092551212141e+01 2.1314882264979822e+00 0 0 0
212 1 2 -5.1974603729380431e-01 2.2606920729018380e+00 8.2928016159575577e+00 2.1732033161878913e+01 0 0 -1
221 1 4 -4.5368657147460084e-01 3.5359584425911317e+00 9.3698254774925456e+00 3.0831624878266743e+00 0 0 0
238 1 4 -4.3970393789316059e-01 5.9412550509163422e+00 1.5306800110379279e+00 1.7470976238547394e+01 0 0 0
309 1 1 5.0933174227215205e-01 5.2845674133944973e+00 5.0968565136984498e+00 1.6526079295692185e+01 0 0 0
313 1 2 -4.9247902713098074e-01 4.3241186207531310e+00 4.7206778606620183e+00 1.7343861112498217e+01 0 0 0
315 1 3 4.1686360288130508e-01 4.7384184682854471e+00 4.4307396096684251e+00 1.8525789717241278e+01 0 0 0
316 1 1 -1.4589985406697203e-01 4.8455378973373424e+00 5.4526885806754706e+00 1.5143496505816767e+01 0 0 0