LAMMPS data file via write_data, version 15 Apr 2020, timestep = 0

4032 atoms
8 atom types

0.0000000000000000e+00 1.0000000000000000e+02 xlo xhi
0.0000000000000000e+00 1.0000000000000000e+02 ylo yhi
0.0000000000000000e+00 1.0000000000000000e+02 zlo zhi

Masses

1 1.00794
2 1
3 1
4 1
5 1
6 12.0107
7 14.0067
8 15.9994

Atoms # full

21 1 1 2.1936383439636789e-01 3.0181888105283765e+01 2.8239968143078642e+01 3.0915082136054210e+01 0 0 0
9 1 7 2.4862971304594719e-01 3.2881966401251809e+01 2.8015073594412705e+01 3.0490755349217839e+01 0 0 0
13 1 8 -2.4444760784507316e-01 3.3976883042218120e+01 2.7515408266855314e+01 3.0052485144833391e+01 0 0 0
14 1 8 -2.6552330109987254e-01 3.2417964329389335e+01 2.9172580499179336e+01 3.0198046781647239e+01 0 0 0
93 1 7 2.4106944501983091e-01 4.0374394316818837e+01 2.7462035183916136e+01 3.0487410232364898e+01 0 0 0
97 1 8 -2.1838509791047350e-01 4.1476321013043680e+01 2.7956080966505233e+01 3.0054762719462889e+01 0 0 0
98 1 8 -2.3195396056480500e-01 3.9913881096137672e+01 2.6301199623892483e+01 3.0193491495374818e+01 0 0 0
105 1 1 2.3683493241317990e-01 3.7674641085141445e+01 2.7230038130612883e+01 3.0915692269426241e+01 0 0 0
177 1 7 2.4722375478498840e-01 4.7872060963165758e+01 2.8013939052789951e+01 3.0490644795103268e+01 0 0 0
181 1 8 -2.4354771755517429e-01 4.8967961056012200e+01 2.7514476206947180e+01 3.0053287910291616e+01 0 0 0
182 1 8 -2.6015918025749440e-01 4.7410085050475146e+01 2.9172956519963009e+01 3.0199357601133190e+01 0 0 0
189 1 1 2.3014664743690877e-01 4.5170262705766284e+01 2.8238940419511895e+01 3.0913004283995022e+01 0 0 0
261 1 7 2.4087279642330894e-01 5.5365363529942378e+01 2.7462058923654208e+01 3.0487435765179203e+01 0 0 0
266 1 8 -2.3195789109126425e-01 5.4904883719622880e+01 2.6301214203040526e+01 3.0193493996378926e+01 0 0 0
273 1 1 2.3722996023101928e-01 5.2665591037811595e+01 2.7229953266313853e+01 3.0915814487670275e+01 0 0 0
265 1 8 -2.1839115470730672e-01 5.6467292826328787e+01 2.7956110509139233e+01 3.0054790100599188e+01 0 0 0
350 1 8 -2.6059689868550878e-01 6.2401022780428981e+01 2.9173047854154447e+01 3.0199496894272432e+01 0 0 0
357 1 1 2.3034114712200759e-01 6.0161217370638951e+01 2.8238993786607068e+01 3.0913015110666070e+01 0 0 0
345 1 7 2.4540610484712636e-01 6.2862848427211020e+01 2.8013970113290497e+01 3.0490610576467461e+01 0 0 0
349 1 8 -2.4077532380786515e-01 6.3958583004083373e+01 2.7514433432829474e+01 3.0053056777551536e+01 0 0 0
441 1 1 2.3706227465889071e-01 6.7653878524955587e+01 2.7230026638719586e+01 3.0913387865750078e+01 0 0 0
429 1 7 2.1947466931516765e-01 7.0351364047324552e+01 2.7464672631930913e+01 3.0484974178367764e+01 0 0 0
433 1 8 -2.3434147483784906e-01 7.1465573256465262e+01 2.7950481560995851e+01 3.0074883797444599e+01 0 0 0
434 1 8 -2.5205220213020008e-01 6.9897253261917399e+01 2.6299113551967011e+01 3.0199421163304564e+01 0 0 0
525 1 1 2.1682936079896775e-01 3.0182609739527702e+01 3.4314972309448400e+01 3.0915986949391684e+01 0 0 0
513 1 7 2.5038284526140253e-01 3.2880005532080624e+01 3.4088915502409229e+01 3.0491794833215540e+01 0 0 0
517 1 8 -2.2066511937733210e-01 3.3979627038349342e+01 3.3594273867115803e+01 3.0054895425773999e+01 0 0 0
518 1 8 -2.7025818772037047e-01 3.2415973002690116e+01 3.5248657740421628e+01 3.0200028103161369e+01 0 0 0
597 1 7 2.4931970928338187e-01 4.0374029123692068e+01 3.3532783335266615e+01 3.0492212854683210e+01 0 0 0
601 1 8 -2.1963083299063618e-01 4.1475019807409410e+01 3.4027144315339903e+01 3.0055377612563877e+01 0 0 0
602 1 8 -2.6670071910636650e-01 3.9911897069694746e+01 3.2370980811273768e+01 3.0201373084812605e+01 0 0 0
609 1 1 2.2664976634675332e-01 3.7674786196225149e+01 3.3307515722242016e+01 3.0914121741921207e+01 0 0 0
681 1 7 2.4759017649022122e-01 4.7869790108828838e+01 3.4087635865030009e+01 3.0491902102238637e+01 0 0 0
685 1 8 -2.2041965489625134e-01 4.8969965556487288e+01 3.3593305576716844e+01 3.0055887992940253e+01 0 0 0
686 1 8 -2.6655615982166714e-01 4.7407570237623865e+01 3.5248452578768919e+01 3.0201610471900292e+01 0 0 0
693 1 1 2.2622360201905317e-01 4.5170384045908783e+01 3.4313425323877873e+01 3.0914202452207821e+01 0 0 0
765 1 7 2.4921305263827909e-01 5.5364984598932367e+01 3.3532814382816731e+01 3.0492220505942761e+01 0 0 0
770 1 8 -2.6685170170152478e-01 5.4902891813843830e+01 3.2370969758889231e+01 3.0201421575068363e+01 0 0 0
777 1 1 2.2687921111020315e-01 5.2665750150272132e+01 3.3307504052056359e+01 3.0914178579779435e+01 0 0 0
769 1 8 -2.1963315274197046e-01 5.6466010647972304e+01 3.4027152268080798e+01 3.0055401583666065e+01 0 0 0
854 1 8 -2.6684376544426813e-01 6.2398538094159626e+01 3.5248560147893350e+01 3.0201727743300424e+01 0 0 0
861 1 1 2.2638054239145244e-01 6.0161355387774670e+01 3.4313465903199116e+01 3.0914202018986977e+01 0 0 0
849 1 7 2.4606153726561489e-01 6.2860595164348759e+01 3.4087631612911473e+01 3.0491886787750786e+01 0 0 0
853 1 8 -2.1865095090367076e-01 6.3960665629148679e+01 3.3593193174423170e+01 3.0055703270172195e+01 0 0 0
945 1 1 2.2808619216692469e-01 6.7654299780484493e+01 3.3306659087296239e+01 3.0912628613001338e+01 0 0 0
933 1 7 2.2809768258774901e-01 7.0351398080595828e+01 3.3535084017148137e+01 3.0490197394753178e+01 0 0 0
937 1 8 -2.2857719413832872e-01 7.1463413705797180e+01 3.4022561692714163e+01 3.0073590855182889e+01 0 0 0
938 1 8 -2.7639697900284088e-01 6.9895621712747342e+01 3.2368827518177653e+01 3.0206393837258219e+01 0 0 0
1029 1 1 2.1711800987772911e-01 3.0182586982652836e+01 4.0391865891493730e+01 3.0915890756893894e+01 0 0 0
1017 1 7 2.5249502938152663e-01 3.2880165501356345e+01 4.0166058872437887e+01 3.0491950740712934e+01 0 0 0
1021 1 8 -2.2063204847128798e-01 3.3979429940357136e+01 3.9671006341178753e+01 3.0054669492903901e+01 0 0 0
1022 1 8 -2.6991599110538422e-01 3.2416107001238828e+01 4.1325744496081889e+01 3.0200089361128509e+01 0 0 0
1101 1 7 2.4754626641214819e-01 4.0374112687559766e+01 3.9609704860787673e+01 3.0491988679247246e+01 0 0 0
1105 1 8 -2.2032416260928328e-01 4.1474643097859179e+01 4.0103817664083024e+01 3.0055783238191083e+01 0 0 0
1106 1 8 -2.6635105004655091e-01 3.9911888853023243e+01 3.8448673375429657e+01 3.0201314674721591e+01 0 0 0
1113 1 1 2.2596737103079814e-01 3.7674763168377083e+01 3.9384473422519875e+01 3.0914232563010795e+01 0 0 0
1185 1 7 2.4982769433332225e-01 4.7869948099273103e+01 4.0164796505865056e+01 3.0491929092896083e+01 0 0 0
1189 1 8 -2.1988874210827422e-01 4.8969848308405858e+01 3.9670187076699349e+01 3.0055646012631218e+01 0 0 0
1190 1 8 -2.6713620785035169e-01 4.7407767703964907e+01 4.1325628254259875e+01 3.0201798607718683e+01 0 0 0
1197 1 1 2.2684106121030223e-01 4.5170339312677271e+01 4.0390394085202509e+01 3.0914093815918459e+01 0 0 0
1269 1 7 2.4740275828427311e-01 5.5365070115366834e+01 3.9609734659332929e+01 3.0491994454195865e+01 0 0 0
1274 1 8 -2.6648011902634539e-01 5.4902880925863208e+01 3.8448689513268477e+01 3.0201361657647936e+01 0 0 0
1281 1 1 2.2623982518397465e-01 5.2665701590971445e+01 3.9384447168068824e+01 3.0914282798802166e+01 0 0 0
1273 1 8 -2.2036274702069147e-01 5.6465608216506432e+01 4.0103838143400758e+01 3.0055821623755222e+01 0 0 0
1358 1 8 -2.6720681297133064e-01 6.2398719547115931e+01 4.1325724320419205e+01 3.0201893026675769e+01 0 0 0
1365 1 1 2.2703040628432644e-01 6.0161316116222991e+01 4.0390448098856403e+01 3.0914113557090925e+01 0 0 0
1353 1 7 2.4818389810767177e-01 6.2860755364991192e+01 4.0164789551548104e+01 3.0491934523410507e+01 0 0 0
1357 1 8 -2.1788878034584502e-01 6.3960536869635526e+01 3.9670059758925014e+01 3.0055434558113227e+01 0 0 0
1449 1 1 2.2753881422755093e-01 6.7654274615040904e+01 3.9383712910273189e+01 3.0912741738611633e+01 0 0 0
1437 1 7 2.2651334066710516e-01 7.0351484963854872e+01 3.9611949895098064e+01 3.0490009174143943e+01 0 0 0
1441 1 8 -2.2992282575081835e-01 7.1463036179848302e+01 4.0098972000891273e+01 3.0074284948187440e+01 0 0 0
1442 1 8 -2.7847868434473672e-01 6.9895657601950845e+01 3.8446529718089529e+01 3.0206681251364664e+01 0 0 0
1533 1 1 2.3059752406099360e-01 3.0182578428207545e+01 4.6470927456936010e+01 3.0918886614407928e+01 0 0 0
1521 1 7 2.4074010094717624e-01 3.2880267772418705e+01 4.6236066940046754e+01 3.0487309932390534e+01 0 0 0
1525 1 8 -2.1740554459557787e-01 3.3981576981264837e+01 4.5741629111425411e+01 3.0053921198544309e+01 0 0 0
1526 1 8 -2.3430436724380999e-01 3.2418561416688682e+01 4.7396024410691219e+01 3.0192209775443310e+01 0 0 0
1605 1 7 2.4580009954161566e-01 4.0374965212538143e+01 4.5684370521260931e+01 3.0491799491506054e+01 0 0 0
1609 1 8 -2.4271318865453961e-01 4.1473322309659196e+01 4.6183456658766147e+01 3.0053062833838229e+01 0 0 0
1610 1 8 -2.5943539238034363e-01 3.9913856830923294e+01 4.4522641102152718e+01 3.0198751072237865e+01 0 0 0
1617 1 1 2.2996634137704722e-01 3.7673913686676869e+01 4.5458183238935121e+01 3.0912609033843079e+01 0 0 0
1689 1 7 2.4096890458262082e-01 4.7870059990719739e+01 4.6235239283373055e+01 3.0487202212811955e+01 0 0 0
1693 1 8 -2.1846019954934839e-01 4.8971881466120898e+01 4.5741154932843351e+01 3.0054715758111268e+01 0 0 0
1694 1 8 -2.3199330742115148e-01 4.7409819298152236e+01 4.7396144070291854e+01 3.0193716231513033e+01 0 0 0
1701 1 1 2.3720983630679232e-01 4.5170399336596361e+01 4.6467890942075677e+01 3.0915696094360882e+01 0 0 0
1773 1 7 2.4571097499616951e-01 5.5365948616184873e+01 4.5684389925312360e+01 3.0491794035255985e+01 0 0 0
1778 1 8 -2.5943160629899309e-01 5.4904891775360376e+01 4.4522635031534712e+01 3.0198776417681433e+01 0 0 0
1785 1 1 2.3015274827324578e-01 5.2664929689393254e+01 4.5458136529022624e+01 3.0912649371691359e+01 0 0 0
1777 1 8 -2.4277063871205784e-01 5.6464315281397703e+01 4.6183472364817057e+01 3.0053082155150602e+01 0 0 0
1862 1 8 -2.3226771955055886e-01 6.2400804744397625e+01 4.7396261037738562e+01 3.0193893828507836e+01 0 0 0
1869 1 1 2.3734565321767626e-01 6.0161370734407711e+01 4.6467893209816857e+01 3.0915658340332865e+01 0 0 0
1857 1 7 2.3970230220643410e-01 6.2860882795573723e+01 4.6235207372977698e+01 3.0487165323032414e+01 0 0 0
1861 1 8 -2.1706929587752113e-01 6.3962722483307637e+01 4.5741136174691320e+01 3.0054638494344388e+01 0 0 0
1953 1 1 2.3071504161488043e-01 6.7653937330606652e+01 4.5457948179769950e+01 3.0911693681722991e+01 0 0 0
1941 1 7 2.2706357559568058e-01 7.0352647629134736e+01 4.5687440020869708e+01 3.0489752544808990e+01 0 0 0
1945 1 8 -2.4849799834337899e-01 7.1463156057922674e+01 4.6178871626273242e+01 3.0073314457891012e+01 0 0 0
1946 1 8 -2.7089680747416156e-01 6.9897782644783462e+01 4.4521356319584960e+01 3.0203748817925348e+01 0 0 0
7 1 6 -2.8500794196602552e-01 2.9660473612758985e+01 2.4678925492220863e+01 3.4063790830952037e+01 0 0 0
17 1 1 2.4027615185399270e-01 3.0304195583205292e+01 2.4326441279712181e+01 3.4924736899608753e+01 0 0 0
18 1 1 2.1007906004538698e-01 2.9272492842518197e+01 2.3727338569740269e+01 3.3577158147550115e+01 0 0 0
8 1 7 2.3414902118302389e-01 3.2521505678939846e+01 2.4184532209521159e+01 3.3813412201792680e+01 0 0 0
11 1 8 -2.8134268269761253e-01 3.1980279859153868e+01 2.3021540872553487e+01 3.3835004741285275e+01 0 0 0
12 1 8 -2.5212002749316131e-01 3.3629532142834492e+01 2.4504697140480150e+01 3.4377399278099190e+01 0 0 0
162 1 8 -3.1222345360038795e-01 4.3285880896578931e+01 2.4502194906532345e+01 3.7134627051206287e+01 0 0 0
175 1 6 -2.7648168077516783e-01 4.4652901506578047e+01 2.4676699008019217e+01 3.4065259712953406e+01 0 0 0
176 1 7 2.3322130106045080e-01 4.7511704747153189e+01 2.4185800180940390e+01 3.3814239653716555e+01 0 0 0
179 1 8 -2.7380210813552025e-01 4.6974519048049487e+01 2.3022351837372110e+01 3.3832640288544226e+01 0 0 0
180 1 8 -2.5413189423131433e-01 4.8619910384846975e+01 2.4505018044391679e+01 3.4375394517850822e+01 0 0 0
185 1 1 2.6267334528037317e-01 4.5294118493296104e+01 2.4324995601806691e+01 3.4929583112272368e+01 0 0 0
186 1 1 2.1858338361199736e-01 4.4263927339303535e+01 2.3725434679435317e+01 3.3578721338883589e+01 0 0 0
330 1 8 -3.1218769311445993e-01 5.8276854710826136e+01 2.4502188754761992e+01 3.7134617262346723e+01 0 0 0
343 1 6 -2.7636515133831052e-01 5.9643888206533148e+01 2.4676687493739944e+01 3.4065274937049288e+01 0 0 0
344 1 7 2.3269149760404331e-01 6.2502665582035299e+01 2.4185666575146328e+01 3.3814244006324799e+01 0 0 0
347 1 8 -2.7371443377317406e-01 6.1965503493062805e+01 2.3022386878019855e+01 3.3832620228539355e+01 0 0 0
353 1 1 2.6273287243240639e-01 6.0285122394544352e+01 2.4325005424736208e+01 3.4929582045721268e+01 0 0 0
354 1 1 2.1860655511595473e-01 5.9254938945452508e+01 2.3725434248919210e+01 3.3578718228806551e+01 0 0 0
348 1 8 -2.5374180264800783e-01 6.3610655213011789e+01 2.4504961627145224e+01 3.4375377303786834e+01 0 0 0
498 1 8 -2.5409583592898660e-01 7.3263591506057210e+01 2.4493542554417044e+01 3.7143206442309548e+01 0 0 0
1 1 6 5.4249360639386290e-02 3.0454638225973323e+01 2.5549431302936732e+01 3.3057089762775995e+01 0 0 0
5 1 6 -8.0786113881108873e-02 3.0637765746482394e+01 2.7397644538727747e+01 3.1510082692786998e+01 0 0 0
6 1 6 4.7890949612240635e-02 2.9795447532733061e+01 2.6585351139895458e+01 3.2320320337154051e+01 0 0 0
10 1 7 2.2692595528618784e-01 2.8302879423566779e+01 2.6826795604187161e+01 3.2389484162379262e+01 0 0 0
15 1 8 -2.7362022127891472e-01 2.7921571276776191e+01 2.8025507478503659e+01 3.2627696713410053e+01 0 0 0
16 1 8 -2.6464462830640101e-01 2.7535039752064936e+01 2.5826272045436937e+01 3.2169430035250457e+01 0 0 0
19 1 1 2.2615934881901784e-01 2.8819779617583340e+01 2.5264328856066367e+01 3.4551044320260765e+01 0 0 0
71 1 7 2.4052850854828570e-01 3.1148028693572932e+01 2.7255982562027686e+01 3.6081326208300588e+01 0 0 0
75 1 8 -3.4544494495585210e-01 3.0021141204504467e+01 2.7583523868103430e+01 3.5562938899948115e+01 0 0 0
511 1 6 -2.7806065855966833e-01 2.9661665256234677e+01 3.0754479790344931e+01 3.4062779971007359e+01 0 0 0
521 1 1 2.3490040448884775e-01 3.0302842618255760e+01 3.0400701796101639e+01 3.4923537761169719e+01 0 0 0
522 1 1 2.4314308264084611e-01 2.9268729769721077e+01 2.9803171837140386e+01 3.3580304578344915e+01 0 0 0
2 1 6 4.7712676913219620e-02 3.1853085367808049e+01 2.5258557546832485e+01 3.2980863399167269e+01 0 0 0
3 1 6 -7.0158344971707740e-02 3.2644690815524385e+01 2.6092584076066156e+01 3.2146947196664122e+01 0 0 0
4 1 6 8.3674217439485138e-02 3.2043301495076555e+01 2.7156315904524583e+01 3.1404439744607402e+01 0 0 0
20 1 1 2.5318555390640074e-01 3.3759098784249211e+01 2.5913642416803714e+01 3.2096975418230130e+01 0 0 0
64 1 6 7.1916360846961402e-02 3.3268149678275002e+01 2.8543243591447517e+01 3.6841237839280858e+01 0 0 0
65 1 6 7.0141649843153409e-02 3.1858107053816930e+01 2.8304629151695682e+01 3.6905700477607176e+01 0 0 0
70 1 6 -2.6407123320300435e-01 3.4234561125726401e+01 2.7730789481052756e+01 3.5938191149524791e+01 0 0 0
74 1 8 -3.1449268717151457e-01 3.1676681944036179e+01 2.6090858853517819e+01 3.6032753676745955e+01 0 0 0
78 1 8 -3.6854548893511047e-01 3.5798621117334584e+01 3.0969143757000484e+01 3.7128175463728702e+01 0 0 0
80 1 1 2.4999118446201782e-01 3.3735547684370331e+01 2.7322947413514093e+01 3.5005453675041494e+01 0 0 0
81 1 1 2.3072564376418808e-01 3.5103265835898917e+01 2.8356995425408059e+01 3.5566879221538834e+01 0 0 0
82 1 1 2.4134891931734681e-01 3.4725410924051232e+01 2.6860861165610345e+01 3.6481030687136091e+01 0 0 0
90 1 6 5.9249553520490689e-02 3.7290318653018439e+01 2.8884945825948165e+01 3.2321018434313153e+01 0 0 0
91 1 6 -2.7472289295321228e-01 3.7157168394661717e+01 3.0790576968980883e+01 3.4063053400727739e+01 0 0 0
94 1 7 2.4645339146977599e-01 3.5797366150425788e+01 2.8642134883856794e+01 3.2391530411787770e+01 0 0 0
99 1 8 -3.2905458868030446e-01 3.5412547102957610e+01 2.7449750805156576e+01 3.2655725681219607e+01 0 0 0
100 1 8 -2.7944765994005938e-01 3.5030741860146549e+01 2.9641071709570152e+01 3.2161099602109836e+01 0 0 0
103 1 1 2.3491220908582830e-01 3.6314505339774463e+01 3.0209502861485255e+01 3.4549725308130391e+01 0 0 0
512 1 7 2.6680837363031296e-01 3.2529732733251571e+01 3.0252516209030127e+01 3.3815028763810574e+01 0 0 0
515 1 8 -3.5468547585928800e-01 3.1989388772070601e+01 2.9093213444531905e+01 3.3837961316389425e+01 0 0 0
516 1 8 -3.3579479457862293e-01 3.3620549018476268e+01 3.0580068320976110e+01 3.4400681333226700e+01 0 0 0
85 1 6 4.4694164332989256e-02 3.7951974583773271e+01 2.9921413664717921e+01 3.3055486889952405e+01 0 0 0
86 1 6 4.9719113229605691e-02 3.9350775884926200e+01 3.0217106879988197e+01 3.2983433283335152e+01 0 0 0
87 1 6 -6.2615981158477926e-02 4.0136341804501733e+01 2.9379753029700716e+01 3.2146719602806037e+01 0 0 0
88 1 6 7.9380368692543307e-02 3.9536350018499142e+01 2.8317510507563064e+01 3.1403035561542428e+01 0 0 0
89 1 6 -7.3829229437094385e-02 3.8132822766627406e+01 2.8072898097694786e+01 3.1511054990065912e+01 0 0 0
92 1 7 2.6547642627849133e-01 4.0023652329779488e+01 3.1291171563606845e+01 3.3815340826682913e+01 0 0 0
96 1 8 -3.3741433245285862e-01 4.1116356707697257e+01 3.0963014304104572e+01 3.4398610142543113e+01 0 0 0
101 1 1 2.4577973493324287e-01 3.7797396765797913e+01 3.1142037680870743e+01 3.4925857033612893e+01 0 0 0
104 1 1 2.6662271246102076e-01 4.1248717784473364e+01 2.9564672837048093e+01 3.2089635467784788e+01 0 0 0
148 1 6 3.9238445023362260e-02 4.0760385930759639e+01 2.6931070644108551e+01 3.6842118958787239e+01 0 0 0
149 1 6 6.0633197813816528e-02 3.9351048025571004e+01 2.7172271335588643e+01 3.6910210534691231e+01 0 0 0
154 1 6 -2.8479344891868430e-01 4.1730311716077665e+01 2.7737872564911541e+01 3.5937979240519766e+01 0 0 0
155 1 7 2.5626817585845391e-01 3.8638759637592450e+01 2.8224974594558262e+01 3.6092330875943276e+01 0 0 0
158 1 8 -3.4406849232809994e-01 3.9175801909477364e+01 2.9386495617583641e+01 3.6031277790257732e+01 0 0 0
159 1 8 -3.6345777123002448e-01 3.7528156721375780e+01 2.7884943029866559e+01 3.5545646685445455e+01 0 0 0
164 1 1 2.2288189312020729e-01 4.1234691249473535e+01 2.8152202371916097e+01 3.5007697560284541e+01 0 0 0
165 1 1 2.1494310712229087e-01 4.2601021271056247e+01 2.7112592399231001e+01 3.5570913915112840e+01 0 0 0
166 1 1 2.4665620236501046e-01 4.2225206823924118e+01 2.8602059600895288e+01 3.6482035566903093e+01 0 0 0
178 1 7 2.4501819181691259e-01 4.3290912702671399e+01 2.6831803706009818e+01 3.2392035594504357e+01 0 0 0
183 1 8 -3.7734331770135204e-01 4.2910918167930191e+01 2.8024042782933847e+01 3.2662051373608236e+01 0 0 0
184 1 8 -2.8571897706204535e-01 4.2521234056646080e+01 2.5829153518097158e+01 3.2189366308792621e+01 0 0 0
666 1 8 -3.7197921462199368e-01 4.3292243076202602e+01 3.0577225936584064e+01 3.7128761509430923e+01 0 0 0
169 1 6 5.0936394317110528e-02 4.5443267807237085e+01 2.5551066277669953e+01 3.3057125745421494e+01 0 0 0
170 1 6 4.7408565544076728e-02 4.6841976729337475e+01 2.5259753231668920e+01 3.2980732039992994e+01 0 0 0
171 1 6 -7.2637681019004030e-02 4.7634444566526355e+01 2.6093275063343849e+01 3.2146466100852024e+01 0 0 0
172 1 6 8.2343684001709869e-02 4.7032267117034991e+01 2.7156464258590571e+01 3.1403645598786852e+01 0 0 0
173 1 6 -7.7119188825863161e-02 4.5626803072755727e+01 2.7397489363963519e+01 3.1509477288942321e+01 0 0 0
174 1 6 4.9844888495080467e-02 4.4783432661233959e+01 2.6587916494244389e+01 3.2320921090009307e+01 0 0 0
187 1 1 2.1507908028622674e-01 4.3813682202788222e+01 2.5257785760372691e+01 3.4555395408785728e+01 0 0 0
188 1 1 2.5154982070694171e-01 4.8749058722786685e+01 2.5913637157607461e+01 3.2096543096864906e+01 0 0 0
232 1 6 7.3590706865385574e-02 4.8256085624898354e+01 2.8542734976197135e+01 3.6841132951426189e+01 0 0 0
233 1 6 7.5738840534536250e-02 4.6845786494351785e+01 2.8303747921765346e+01 3.6905952104332108e+01 0 0 0
238 1 6 -2.6680370693342642e-01 4.9224208097920126e+01 2.7731249409716824e+01 3.5938894405213013e+01 0 0 0
239 1 7 2.6697549090899786e-01 4.6132154003807365e+01 2.7255508705649792e+01 3.6083469876785649e+01 0 0 0
242 1 8 -2.9072322994960959e-01 4.6666457845800331e+01 2.6093407475295393e+01 3.6026527097125907e+01 0 0 0
243 1 8 -3.6961899672490162e-01 4.5014226675930161e+01 2.7589287553582231e+01 3.5549945471101900e+01 0 0 0
248 1 1 2.4767681067780487e-01 4.8726408679936107e+01 2.7323201234417699e+01 3.5005827247578118e+01 0 0 0
249 1 1 2.2887297831635356e-01 5.0093237977168357e+01 2.8357351234257703e+01 3.5567787387208895e+01 0 0 0
250 1 1 2.4043622330598746e-01 4.9715089143795829e+01 2.6861249529674218e+01 3.6481624184023673e+01 0 0 0
679 1 6 -2.7374386169333792e-01 4.4653033339813227e+01 3.0753507808723196e+01 3.4062700234813974e+01 0 0 0
680 1 7 2.6682957839926424e-01 4.7519013911342853e+01 3.0253613464034920e+01 3.3815085082196966e+01 0 0 0
683 1 8 -3.5544185254659899e-01 4.6979736045426066e+01 2.9093451952631650e+01 3.3837023569173326e+01 0 0 0
684 1 8 -3.3735043087339744e-01 4.8610915722394672e+01 3.0580790771729994e+01 3.4399705058070182e+01 0 0 0
689 1 1 2.4517216780430362e-01 4.5292634569838313e+01 3.0401601323423581e+01 3.4925856027560627e+01 0 0 0
690 1 1 2.3645346636842329e-01 4.4262757836007033e+01 2.9802238275431879e+01 3.3578990405655439e+01 0 0 0
246 1 8 -3.7047688631431913e-01 5.0787846668635055e+01 3.0968641176106082e+01 3.7128361963449791e+01 0 0 0
253 1 6 4.5525724245765939e-02 5.2942927738092820e+01 2.9921335957159357e+01 3.3055425331337069e+01 0 0 0
254 1 6 4.9615678141267862e-02 5.4341724559488405e+01 3.0217093025510746e+01 3.2983425599243134e+01 0 0 0
255 1 6 -6.2957434234626963e-02 5.5127301805888102e+01 2.9379744844034267e+01 3.2146722805914884e+01 0 0 0
256 1 6 7.9164791817576755e-02 5.4527295762177260e+01 2.8317507722024271e+01 3.1403050319688699e+01 0 0 0
257 1 6 -7.3427537423621014e-02 5.3123758767580028e+01 2.8072889781347286e+01 3.1511096265062992e+01 0 0 0
258 1 6 6.0346978112680791e-02 5.2281198406526450e+01 2.8884840592183835e+01 3.2321056629191908e+01 0 0 0
259 1 6 -2.7385459157867631e-01 5.2148245577185548e+01 3.0790599381980257e+01 3.4062999725761422e+01 0 0 0
260 1 7 2.6526487293890844e-01 5.5014621750214332e+01 3.1291117377151775e+01 3.3815371005375354e+01 0 0 0
262 1 7 2.4742567541787022e-01 5.0788226702722085e+01 2.8642051281763635e+01 3.2391495879462077e+01 0 0 0
264 1 8 -3.3795674852212559e-01 5.6107338882276274e+01 3.0962930806803449e+01 3.4398600295559696e+01 0 0 0
267 1 8 -3.3130336670089416e-01 5.0403136982506133e+01 2.7449886107987172e+01 3.2656326549631395e+01 0 0 0
268 1 8 -2.8128949508938184e-01 5.0021653294665406e+01 2.9641087292787216e+01 3.2161313330010465e+01 0 0 0
269 1 1 2.4633514381155663e-01 5.2788507516951356e+01 3.1142016127013850e+01 3.4925824936223719e+01 0 0 0
271 1 1 2.3415182819589869e-01 5.1305714453407418e+01 3.0209457939158337e+01 3.4549748609588946e+01 0 0 0
272 1 1 2.6652190215075344e-01 5.6239680070360059e+01 2.9564664962598659e+01 3.2089632888690531e+01 0 0 0
316 1 6 3.9010892819250201e-02 5.5751390656568610e+01 2.6931070404633662e+01 3.6842086841928321e+01 0 0 0
317 1 6 6.0850373786537917e-02 5.4342051714983789e+01 2.7172277060933311e+01 3.6910169076343934e+01 0 0 0
323 1 7 2.5732887341274124e-01 5.3629620896206880e+01 2.8224980083858629e+01 3.6092368986838437e+01 0 0 0
326 1 8 -3.4353904908582339e-01 5.4166907471584466e+01 2.9386356643453965e+01 3.6031110226931894e+01 0 0 0
327 1 8 -3.6309933052115495e-01 5.2518874811424006e+01 2.7885012592250810e+01 3.5545958939327953e+01 0 0 0
322 1 6 -2.8503491175982282e-01 5.6721328816417689e+01 2.7737872211785085e+01 3.5937963530392167e+01 0 0 0
332 1 1 2.2269835629730644e-01 5.6225716608754396e+01 2.8152185979859240e+01 3.5007677952278939e+01 0 0 0
333 1 1 2.1496589563541432e-01 5.7592045482006164e+01 2.7112595106430465e+01 3.5570920028193285e+01 0 0 0
334 1 1 2.4657648542547364e-01 5.7216258824957109e+01 2.8602033208873344e+01 3.6482024157844066e+01 0 0 0
337 1 6 5.1122489968882204e-02 6.0434250564415322e+01 2.5551091470076148e+01 3.3057110174473074e+01 0 0 0
338 1 6 4.7317125404685620e-02 6.1832994518010992e+01 2.5259709253198437e+01 3.2980712008353038e+01 0 0 0
340 1 6 8.2066343679981779e-02 6.2023206959919776e+01 2.7156469184406888e+01 3.1403662844439367e+01 0 0 0
341 1 6 -7.6829608470000255e-02 6.0617696783216722e+01 2.7397516783503860e+01 3.1509511727902868e+01 0 0 0
342 1 6 5.0048141004171078e-02 5.9774351435786649e+01 2.6587947500874929e+01 3.2320928886197407e+01 0 0 0
346 1 7 2.4510822518315006e-01 5.8281863024906578e+01 2.6831803106735538e+01 3.2392045730382250e+01 0 0 0
351 1 8 -3.7729562462296717e-01 5.7901818982356872e+01 2.8024039692866154e+01 3.2662065181021212e+01 0 0 0
352 1 8 -2.8583674696183703e-01 5.7512190600964210e+01 2.5829127328686141e+01 3.2189393738827434e+01 0 0 0
355 1 1 2.1510477102069808e-01 5.8804706404503058e+01 2.5257802371320636e+01 3.4555406441029696e+01 0 0 0
401 1 6 7.5313528775903485e-02 6.1836770075708635e+01 2.8303702484141237e+01 3.6905956581767477e+01 0 0 0
407 1 7 2.6668655197626595e-01 6.1123119303601882e+01 2.7255469518311770e+01 3.6083508519325441e+01 0 0 0
410 1 8 -2.9099105779019008e-01 6.1657547837554077e+01 2.6093434100226713e+01 3.6026388625653908e+01 0 0 0
411 1 8 -3.6913820052424329e-01 6.0005222698987716e+01 2.7589269426084197e+01 3.5549936026610368e+01 0 0 0
834 1 8 -3.7176836038020061e-01 5.8283145390727768e+01 3.0577209255721648e+01 3.7128778492374444e+01 0 0 0
847 1 6 -2.7325645540327276e-01 5.9644013573241793e+01 3.0753494157368205e+01 3.4062700998755915e+01 0 0 0
848 1 7 2.6562615101763809e-01 6.2509906163236025e+01 3.0253628672711887e+01 3.3815174216871647e+01 0 0 0
851 1 8 -3.5640266735547321e-01 6.1971066897746887e+01 2.9093381602962388e+01 3.3836962673717942e+01 0 0 0
857 1 1 2.4539542280809687e-01 6.0283635674309323e+01 3.0401607880045088e+01 3.4925847490321885e+01 0 0 0
858 1 1 2.3666301919200630e-01 5.9253795107980494e+01 2.9802200160957344e+01 3.3578976302560186e+01 0 0 0
339 1 6 -7.3601228583768108e-02 6.2625515731535749e+01 2.6093227258671295e+01 3.2146473831751955e+01 0 0 0
356 1 1 2.5185758622670784e-01 6.3740163823943448e+01 2.5913551107913179e+01 3.2096399693302835e+01 0 0 0
400 1 6 7.3068881855907264e-02 6.3247092451067161e+01 2.8542559620365925e+01 3.6841059405538388e+01 0 0 0
406 1 6 -2.6644270490390309e-01 6.4215428470461887e+01 2.7731246943145191e+01 3.5938886146089246e+01 0 0 0
414 1 8 -3.6557433849344928e-01 6.5778320233968500e+01 3.0968830394808474e+01 3.7129398190526274e+01 0 0 0
416 1 1 2.4707310539663338e-01 6.3717853290618955e+01 2.7323030828946280e+01 3.5005803540755338e+01 0 0 0
417 1 1 2.3116797395424032e-01 6.5084671417054437e+01 2.8357324152308969e+01 3.5567926569515450e+01 0 0 0
418 1 1 2.4166954660706857e-01 6.4706430051015118e+01 2.6861241198800851e+01 3.6481563314594979e+01 0 0 0
421 1 6 4.7208612663112853e-02 6.7930542981000045e+01 2.9921061632058347e+01 3.3055752468501510e+01 0 0 0
425 1 6 -7.5622309631689269e-02 6.8111046967129383e+01 2.8072234649575165e+01 3.1510204766345801e+01 0 0 0
426 1 6 6.1224614429476701e-02 6.7269362794345653e+01 2.8884283483693601e+01 3.2321097491047496e+01 0 0 0
427 1 6 -2.6852528300384537e-01 6.7137893769957202e+01 3.0791097935593811e+01 3.4063932851494279e+01 0 0 0
430 1 7 2.4997816429316322e-01 6.5776669861072193e+01 2.8641613542388729e+01 3.2391416915223758e+01 0 0 0
435 1 8 -3.2982248094836064e-01 6.5391963308967547e+01 2.7449295638459652e+01 3.2656388670037110e+01 0 0 0
436 1 8 -2.7926013515531500e-01 6.5009993176649218e+01 2.9640776368098404e+01 3.2161856573631610e+01 0 0 0
437 1 1 2.4990932127091131e-01 6.7779297619755837e+01 3.1142189822115146e+01 3.4926339695023387e+01 0 0 0
439 1 1 2.3701353372264641e-01 6.6295918192022526e+01 3.0209651818809043e+01 3.4551165396857918e+01 0 0 0
491 1 7 2.5550862774727867e-01 6.8619814440213133e+01 2.8224949103562384e+01 3.6092150511957605e+01 0 0 0
495 1 8 -3.6069281090763672e-01 6.7510080291886325e+01 2.7884742763207349e+01 3.5543876038024202e+01 0 0 0
852 1 8 -3.3984937722550718e-01 6.3601647651976137e+01 3.0581041394897152e+01 3.4399713861534202e+01 0 0 0
422 1 6 4.9543745554861032e-02 6.9329054529956593e+01 3.0216741574253650e+01 3.2983482657141643e+01 0 0 0
423 1 6 -8.3301570129962407e-02 7.0115725991315401e+01 2.9379330199570539e+01 3.2147507999131996e+01 0 0 0
424 1 6 6.8765695620969347e-02 6.9513727137454012e+01 2.8319879536903663e+01 3.1400843406313069e+01 0 0 0
428 1 7 2.4750043687264695e-01 7.0000810974027289e+01 3.1290550839467461e+01 3.3816298668218245e+01 0 0 0
432 1 8 -3.4497067096004669e-01 7.1106554714765295e+01 3.0968308211252321e+01 3.4378000577613101e+01 0 0 0
440 1 1 2.2550895246038707e-01 7.1227677835492955e+01 2.9563702504840027e+01 3.2090045287430840e+01 0 0 0
484 1 6 2.7837843875440603e-02 7.0740833080530422e+01 2.6930504127299034e+01 3.6842477818520599e+01 0 0 0
485 1 6 4.8612852255099454e-02 6.9331540870644275e+01 2.7171304467609900e+01 3.6909578627587969e+01 0 0 0
490 1 6 -2.9535661764842341e-01 7.1712575775309915e+01 2.7735830724517907e+01 3.5938881461787695e+01 0 0 0
494 1 8 -3.4793221616373649e-01 6.9158841034457154e+01 2.9385559020451527e+01 3.6030236239499423e+01 0 0 0
500 1 1 2.0228592731915279e-01 7.1214880127770599e+01 2.8152205150552650e+01 3.5011438824097745e+01 0 0 0
501 1 1 2.0849741996472027e-01 7.2583357325596097e+01 2.7108061648054168e+01 3.5572716425698296e+01 0 0 0
502 1 1 2.4440195249578095e-01 7.2208512881356867e+01 2.8600266117148479e+01 3.6481957619401747e+01 0 0 0
1002 1 8 -2.9286926373190048e-01 7.3261703937943395e+01 3.0567757841228048e+01 3.7142889824706998e+01 0 0 0
505 1 6 5.2690189098657282e-02 3.0458395355685251e+01 3.1621784033456404e+01 3.3055983073543757e+01 0 0 0
509 1 6 -7.8495871306157955e-02 3.0639580893056007e+01 3.3471958153199758e+01 3.1510895007825134e+01 0 0 0
510 1 6 5.3626701387871081e-02 2.9798975400255479e+01 3.2657979527148733e+01 3.2320728088908737e+01 0 0 0
514 1 7 2.1831258494143563e-01 2.8307202274595149e+01 3.2902823400327641e+01 3.2390722064255634e+01 0 0 0
519 1 8 -2.7919511282305459e-01 2.7925673866829293e+01 3.4103394054760180e+01 3.2627211651196383e+01 0 0 0