ITEM: TIMESTEP
0
ITEM: NUMBER OF ATOMS
576
ITEM: BOX BOUNDS xy xz yz pp pp pp
-3.8734541101000000e+00 1.7704000473000001e+01 0.0000000000000000e+00
0.0000000000000000e+00 2.5111999511699999e+01 -3.8734541101000000e+00
0.0000000000000000e+00 1.2813326682700000e+01 0.0000000000000000e+00
ITEM: ATOMS id type xs ys zs
1 1 0.221334 0.317078 0.86788
2 1 0.778666 0.682922 0.13212
3 1 0.028666 0.567078 0.63212
4 1 0.471334 0.932922 0.36788
5 1 0.221334 0.817078 0.86788
6 1 0.778666 0.182922 0.13212
7 1 0.028666 0.0670781 0.63212
8 1 0.471334 0.432922 0.36788
9 1 0.721334 0.317078 0.86788
10 1 0.278666 0.682922 0.13212
11 1 0.528666 0.567078 0.63212
12 1 0.971334 0.932922 0.36788
13 1 0.721334 0.817078 0.86788
14 1 0.278666 0.182922 0.13212
15 1 0.528666 0.0670781 0.63212
16 1 0.971334 0.432922 0.36788
17 1 0.155142 0.317356 0.682364
18 1 0.844858 0.682644 0.317636
19 1 0.0948578 0.567356 0.817636
20 1 0.405142 0.932644 0.182364
21 1 0.155142 0.817356 0.682364
22 1 0.844858 0.182644 0.317636
23 1 0.0948578 0.0673561 0.817636
24 1 0.405142 0.432644 0.182364
25 1 0.655142 0.317356 0.682364
26 1 0.344858 0.682644 0.317636
27 1 0.594858 0.567356 0.817636
28 1 0.905142 0.932644 0.182364
29 1 0.655142 0.817356 0.682364
30 1 0.344858 0.182644 0.317636
31 1 0.594858 0.067356 0.817636
32 1 0.905142 0.432644 0.182364
33 1 0.275339 0.256251 0.692511
34 1 0.724661 0.743749 0.307489
35 1 0.974661 0.506251 0.807489
36 1 0.525339 0.993749 0.192511
37 1 0.275339 0.756251 0.692511
38 1 0.724661 0.243749 0.307489
39 1 0.974661 0.00625062 0.807489
40 1 0.525339 0.493749 0.192511
41 1 0.775339 0.256251 0.692511
42 1 0.224661 0.743749 0.307489
43 1 0.474661 0.506251 0.807489
44 1 0.025339 0.993749 0.192511
45 1 0.775339 0.756251 0.692511
46 1 0.224661 0.243749 0.307489
47 1 0.474661 0.00625062 0.807489
48 1 0.025339 0.493749 0.192511
49 1 0.297342 0.278621 0.8761
50 1 0.702658 0.721379 0.1239
51 1 0.952658 0.528621 0.6239
52 1 0.547342 0.971379 0.3761
53 1 0.297342 0.778621 0.8761
54 1 0.702658 0.221379 0.1239
55 1 0.952658 0.0286209 0.6239
56 1 0.547342 0.471379 0.3761
57 1 0.797342 0.278621 0.8761
58 1 0.202658 0.721379 0.1239
59 1 0.452658 0.528621 0.6239
60 1 0.0473416 0.971379 0.3761
61 1 0.797342 0.778621 0.8761
62 1 0.202658 0.221379 0.1239
63 1 0.452658 0.0286209 0.6239
64 1 0.0473416 0.471379 0.3761
65 1 0.333455 0.309194 0.722076
66 1 0.666545 0.690806 0.277924
67 1 0.916545 0.559194 0.777924
68 1 0.583455 0.940806 0.222076
69 1 0.333455 0.809194 0.722076
70 1 0.666545 0.190806 0.277924
71 1 0.916545 0.0591941 0.777924
72 1 0.583455 0.440806 0.222076
73 1 0.833455 0.309194 0.722076
74 1 0.166545 0.690806 0.277924
75 1 0.416545 0.559194 0.777924
76 1 0.0834545 0.940806 0.222076
77 1 0.833455 0.809194 0.722076
78 1 0.166545 0.190806 0.277924
79 1 0.416545 0.0591941 0.777924
80 1 0.0834545 0.440806 0.222076
81 1 0.215481 0.368791 0.713445
82 1 0.784519 0.631209 0.286555
83 1 0.0345187 0.618791 0.786555
84 1 0.465481 0.881209 0.213445
85 1 0.215481 0.868791 0.713445
86 1 0.784519 0.131209 0.286555
87 1 0.0345187 0.118791 0.786555
88 1 0.465481 0.381209 0.213445
89 1 0.715481 0.368791 0.713445
90 1 0.284519 0.631209 0.286555
91 1 0.534519 0.618791 0.786555
92 1 0.965481 0.881209 0.213445
93 1 0.715481 0.868791 0.713445
94 1 0.284519 0.131209 0.286555
95 1 0.534519 0.118791 0.786555
96 1 0.965481 0.381209 0.213445
97 2 0.207242 0.321399 0.943583
98 2 0.792758 0.678601 0.0564171
99 2 0.0427576 0.571399 0.556417
100 2 0.457242 0.928601 0.443583
101 2 0.207242 0.821399 0.943583
102 2 0.792758 0.178601 0.0564171
103 2 0.0427576 0.071399 0.556417
104 2 0.457242 0.428601 0.443583
105 2 0.707242 0.321399 0.943583
106 2 0.292758 0.678601 0.0564171
107 2 0.542758 0.571399 0.556417
108 2 0.957242 0.928601 0.443583
109 2 0.707242 0.821399 0.943583
110 2 0.292758 0.178601 0.0564171
111 2 0.542758 0.071399 0.556417
112 2 0.957242 0.428601 0.443583
113 2 0.0967603 0.328028 0.626897
114 2 0.90324 0.671972 0.373103
115 2 0.15324 0.578028 0.873103
116 2 0.34676 0.921972 0.126897
117 2 0.0967603 0.828028 0.626897
118 2 0.90324 0.171972 0.373103
119 2 0.15324 0.0780278 0.873103
120 2 0.34676 0.421972 0.126897
121 2 0.59676 0.328028 0.626897
122 2 0.40324 0.671972 0.373103
123 2 0.65324 0.578028 0.873103
124 2 0.84676 0.921972 0.126897
125 2 0.59676 0.828028 0.626897
126 2 0.40324 0.171972 0.373103
127 2 0.65324 0.0780278 0.873103
128 2 0.84676 0.421972 0.126897
129 2 0.294664 0.227069 0.642574
130 2 0.705336 0.772931 0.357426
131 2 0.955336 0.477069 0.857426
132 2 0.544664 0.0229308 0.142574
133 2 0.294664 0.727069 0.642574
134 2 0.705336 0.272931 0.357426
135 2 0.955336 0.977069 0.857426
136 2 0.544664 0.522931 0.142574
137 2 0.794664 0.227069 0.642574
138 2 0.205336 0.772931 0.357426
139 2 0.455336 0.477069 0.857426
140 2 0.0446637 0.0229308 0.142574
141 2 0.794664 0.727069 0.642574
142 2 0.205336 0.272931 0.357426
143 2 0.455336 0.977069 0.857426
144 2 0.0446637 0.522931 0.142574
145 2 0.319927 0.263849 0.957956
146 2 0.680073 0.736151 0.0420438
147 2 0.930073 0.513849 0.542044
148 2 0.569927 0.986151 0.457956
149 2 0.319927 0.763849 0.957956
150 2 0.680073 0.236151 0.0420438
151 2 0.930073 0.0138488 0.542044
152 2 0.569927 0.486151 0.457956
153 2 0.819927 0.263849 0.957956
154 2 0.180073 0.736151 0.0420438
155 2 0.430073 0.513849 0.542044
156 2 0.0699269 0.986151 0.457956
157 2 0.819927 0.763849 0.957956
158 2 0.180073 0.236151 0.0420438
159 2 0.430073 0.0138488 0.542044
160 2 0.069927 0.486151 0.457956
161 2 0.38463 0.307635 0.689486
162 2 0.61537 0.692365 0.310514
163 2 0.86537 0.557635 0.810514
164 2 0.63463 0.942365 0.189486
165 2 0.38463 0.807635 0.689486
166 2 0.61537 0.192365 0.310514
167 2 0.86537 0.0576347 0.810514
168 2 0.63463 0.442365 0.189486
169 2 0.88463 0.307635 0.689486
170 2 0.11537 0.692365 0.310514
171 2 0.36537 0.557635 0.810514
172 2 0.13463 0.942365 0.189486
173 2 0.88463 0.807635 0.689486
174 2 0.11537 0.192365 0.310514
175 2 0.36537 0.0576347 0.810514
176 2 0.13463 0.442365 0.189486
177 2 0.187525 0.406899 0.678594
178 2 0.812475 0.593101 0.321406
179 2 0.0624754 0.656899 0.821406
180 2 0.437525 0.843101 0.178594
181 2 0.187525 0.906899 0.678594
182 2 0.812475 0.0931014 0.321406
183 2 0.0624754 0.156899 0.821406
184 2 0.437525 0.343101 0.178594
185 2 0.687525 0.406899 0.678594
186 2 0.312475 0.593101 0.321406
187 2 0.562475 0.656899 0.821406
188 2 0.937525 0.843101 0.178594
189 2 0.687525 0.906899 0.678594
190 2 0.312475 0.0931014 0.321406
191 2 0.562475 0.156899 0.821406
192 2 0.937525 0.343101 0.178594
193 3 0.15193 0.296196 0.78589
194 3 0.84807 0.703804 0.21411
195 3 0.0980697 0.546196 0.71411
196 3 0.40193 0.953804 0.28589
197 3 0.15193 0.796196 0.78589
198 3 0.84807 0.203804 0.21411
199 3 0.0980697 0.0461959 0.71411
200 3 0.40193 0.453804 0.28589
201 3 0.65193 0.296196 0.78589
202 3 0.34807 0.703804 0.21411
203 3 0.59807 0.546196 0.71411
204 3 0.90193 0.953804 0.28589
205 3 0.65193 0.796196 0.78589
206 3 0.34807 0.203804 0.21411
207 3 0.59807 0.0461959 0.71411
208 3 0.90193 0.453804 0.28589
209 3 0.0715963 0.303646 0.804696
210 3 0.928404 0.696354 0.195304
211 3 0.178404 0.553646 0.695304
212 3 0.321596 0.946354 0.304696
213 3 0.0715963 0.803646 0.804696
214 3 0.928404 0.196354 0.195304
215 3 0.178404 0.0536463 0.695304
216 3 0.321596 0.446354 0.304696
217 3 0.571596 0.303646 0.804696
218 3 0.428404 0.696354 0.195304
219 3 0.678404 0.553646 0.695304
220 3 0.821596 0.946354 0.304696
221 3 0.571596 0.803646 0.804696
222 3 0.428404 0.196354 0.195304
223 3 0.678404 0.0536463 0.695304
224 3 0.821596 0.446354 0.304696
225 3 0.194672 0.275473 0.637211
226 3 0.805328 0.724527 0.362789
227 3 0.0553277 0.525473 0.862789
228 3 0.444672 0.974527 0.137211
229 3 0.194672 0.775473 0.637211
230 3 0.805328 0.224527 0.362789
231 3 0.0553277 0.0254732 0.862789
232 3 0.444672 0.474527 0.137211
233 3 0.694672 0.275473 0.637211
234 3 0.305328 0.724527 0.362789
235 3 0.555328 0.525473 0.862789
236 3 0.944672 0.974527 0.137211
237 3 0.694672 0.775473 0.637211
238 3 0.305328 0.224527 0.362789
239 3 0.555328 0.0254732 0.862789
240 3 0.944672 0.474527 0.137211
241 3 0.152024 0.253412 0.530051
242 3 0.847976 0.746588 0.469949
243 3 0.097976 0.503412 0.969949
244 3 0.402024 0.996588 0.0300509
245 3 0.152024 0.753412 0.530051
246 3 0.847976 0.246588 0.469949
247 3 0.097976 0.00341214 0.969949
248 3 0.402024 0.496588 0.0300509
249 3 0.652024 0.253412 0.530051
250 3 0.347976 0.746588 0.469949
251 3 0.597976 0.503412 0.969949
252 3 0.902024 0.996588 0.0300509
253 3 0.652024 0.753412 0.530051
254 3 0.347976 0.246588 0.469949
255 3 0.597976 0.00341214 0.969949
256 3 0.902024 0.496588 0.0300509
257 3 0.283598 0.234138 0.798768
258 3 0.716402 0.765862 0.201232
259 3 0.966402 0.484138 0.701232
260 3 0.533598 0.015862 0.298768
261 3 0.283598 0.734138 0.798768
262 3 0.716402 0.265862 0.201232
263 3 0.966402 0.984138 0.701232
264 3 0.533598 0.515862 0.298768
265 3 0.783598 0.234138 0.798768
266 3 0.216402 0.765862 0.201232
267 3 0.466402 0.484138 0.701232
268 3 0.0335978 0.015862 0.298768
269 3 0.783598 0.734138 0.798768
270 3 0.216402 0.265862 0.201232
271 3 0.466402 0.984138 0.701232
272 3 0.0335978 0.515862 0.298768
273 3 0.221632 0.194381 0.80562
274 3 0.778368 0.805619 0.19438
275 3 0.0283685 0.444381 0.69438
276 3 0.471632 0.0556192 0.30562
277 3 0.221632 0.694381 0.80562
278 3 0.778368 0.305619 0.19438
279 3 0.0283685 0.944381 0.69438
280 3 0.471632 0.555619 0.30562
281 3 0.721632 0.194381 0.80562
282 3 0.278368 0.805619 0.19438
283 3 0.528368 0.444381 0.69438
284 3 0.971632 0.0556192 0.30562
285 3 0.721632 0.694381 0.80562
286 3 0.278368 0.305619 0.19438
287 3 0.528368 0.944381 0.69438
288 3 0.971632 0.555619 0.30562
289 3 0.36022 0.304325 0.837686
290 3 0.63978 0.695675 0.162314
291 3 0.88978 0.554325 0.662314
292 3 0.61022 0.945675 0.337686
293 3 0.36022 0.804325 0.837686
294 3 0.63978 0.195675 0.162314
295 3 0.88978 0.0543252 0.662314
296 3 0.61022 0.445675 0.337686
297 3 0.86022 0.304325 0.837686
298 3 0.13978 0.695675 0.162314
299 3 0.38978 0.554325 0.662314
300 3 0.11022 0.945675 0.337686
301 3 0.86022 0.804325 0.837686
302 3 0.13978 0.195675 0.162314
303 3 0.38978 0.0543252 0.662314
304 3 0.11022 0.445675 0.337686
305 3 0.397648 0.352212 0.899438
306 3 0.602352 0.647788 0.100562
307 3 0.852352 0.602212 0.600562
308 3 0.647648 0.897788 0.399438
309 3 0.397648 0.852212 0.899438
310 3 0.602352 0.147788 0.100562
311 3 0.852352 0.102212 0.600562
312 3 0.647648 0.397788 0.399438
313 3 0.897648 0.352212 0.899438
314 3 0.102352 0.647788 0.100562
315 3 0.352352 0.602212 0.600562
316 3 0.147648 0.897788 0.399438
317 3 0.897648 0.852212 0.899438
318 3 0.102352 0.147788 0.100562
319 3 0.352352 0.102212 0.600562
320 3 0.147648 0.397788 0.399438
321 3 0.283516 0.355349 0.6744
322 3 0.716484 0.644651 0.3256
323 3 0.966484 0.605349 0.8256
324 3 0.533516 0.894651 0.1744
325 3 0.283516 0.855349 0.6744
326 3 0.716484 0.144651 0.3256
327 3 0.966484 0.105349 0.8256
328 3 0.533516 0.394651 0.1744
329 3 0.783516 0.355349 0.6744
330 3 0.216484 0.644651 0.3256
331 3 0.466484 0.605349 0.8256
332 3 0.0335157 0.894651 0.1744
333 3 0.783516 0.855349 0.6744
334 3 0.216484 0.144651 0.3256
335 3 0.466484 0.105349 0.8256
336 3 0.0335157 0.394651 0.1744
337 3 0.326724 0.402851 0.644545
338 3 0.673276 0.597149 0.355455
339 3 0.923276 0.652851 0.855455
340 3 0.576724 0.847149 0.144545
341 3 0.326724 0.902851 0.644545
342 3 0.673276 0.0971493 0.355455
343 3 0.923276 0.152851 0.855455
344 3 0.576724 0.347149 0.144545
345 3 0.826724 0.402851 0.644545
346 3 0.173276 0.597149 0.355455
347 3 0.423276 0.652851 0.855455
348 3 0.0767245 0.847149 0.144545
349 3 0.826724 0.902851 0.644545
350 3 0.173276 0.0971493 0.355455
351 3 0.423276 0.152851 0.855455
352 3 0.0767245 0.347149 0.144545
353 3 0.239554 0.36984 0.830218
354 3 0.760446 0.63016 0.169781
355 3 0.0104459 0.61984 0.669782
356 3 0.489554 0.88016 0.330218
357 3 0.239554 0.86984 0.830218
358 3 0.760446 0.13016 0.169781
359 3 0.0104459 0.11984 0.669782
360 3 0.489554 0.38016 0.330219
361 3 0.739554 0.36984 0.830219
362 3 0.260446 0.63016 0.169781
363 3 0.510446 0.61984 0.669781
364 3 0.989554 0.88016 0.330218
365 3 0.739554 0.86984 0.830219
366 3 0.260446 0.13016 0.169781
367 3 0.510446 0.11984 0.669781
368 3 0.989554 0.38016 0.330219
369 3 0.207292 0.417925 0.874761
370 3 0.792708 0.582075 0.125239
371 3 0.0427076 0.667925 0.625239
372 3 0.457292 0.832075 0.374761
373 3 0.207292 0.917925 0.874761
374 3 0.792708 0.0820754 0.125239
375 3 0.0427076 0.167925 0.625239
376 3 0.457292 0.332075 0.374761
377 3 0.707292 0.417925 0.874761
378 3 0.292708 0.582075 0.125239
379 3 0.542708 0.667925 0.625239
380 3 0.957292 0.832075 0.374761
381 3 0.707292 0.917925 0.874761
382 3 0.292708 0.0820754 0.125239
383 3 0.542708 0.167925 0.625239
384 3 0.957292 0.332075 0.374761
385 4 0.0104474 0.308204 0.72639
386 4 0.989553 0.691796 0.27361
387 4 0.239553 0.558204 0.77361
388 4 0.260447 0.941796 0.22639
389 4 0.0104474 0.808204 0.72639
390 4 0.989553 0.191796 0.27361
391 4 0.239553 0.058204 0.77361
392 4 0.260447 0.441796 0.22639
393 4 0.510447 0.308204 0.72639
394 4 0.489553 0.691796 0.27361
395 4 0.739553 0.558204 0.77361
396 4 0.760447 0.941796 0.22639
397 4 0.510447 0.808204 0.72639
398 4 0.489553 0.191796 0.27361
399 4 0.739553 0.058204 0.77361
400 4 0.760447 0.441796 0.22639
401 4 0.0675056 0.298634 0.897514
402 4 0.932494 0.701366 0.102485
403 4 0.182494 0.548634 0.602485
404 4 0.317506 0.951366 0.397515
405 4 0.0675056 0.798634 0.897514
406 4 0.932494 0.201366 0.102485
407 4 0.182494 0.0486338 0.602486
408 4 0.317506 0.451366 0.397515
409 4 0.567506 0.298634 0.897515
410 4 0.432494 0.701366 0.102485
411 4 0.682494 0.548634 0.602485
412 4 0.817506 0.951366 0.397515
413 4 0.567506 0.798634 0.897515
414 4 0.432494 0.201366 0.102485
415 4 0.682494 0.0486338 0.602485
416 4 0.817506 0.451366 0.397515
417 4 0.184066 0.214691 0.496321
418 4 0.815934 0.785309 0.503679
419 4 0.0659336 0.464691 0.00367875
420 4 0.434066 0.0353088 0.996321
421 4 0.184066 0.714691 0.496321
422 4 0.815934 0.285309 0.503679
423 4 0.0659336 0.964691 0.00367875
424 4 0.434066 0.535309 0.996321
425 4 0.684066 0.214691 0.496321
426 4 0.315934 0.785309 0.503679
427 4 0.565934 0.464691 0.00367874
428 4 0.934066 0.0353088 0.996321
429 4 0.684066 0.714691 0.496321
430 4 0.315934 0.285309 0.503679
431 4 0.565934 0.964691 0.00367875
432 4 0.934066 0.535309 0.996321
433 4 0.0885685 0.275513 0.477328
434 4 0.911432 0.724487 0.522672
435 4 0.161432 0.525513 0.0226724
436 4 0.338568 0.974487 0.977328
437 4 0.0885685 0.775513 0.477328
438 4 0.911432 0.224487 0.522672
439 4 0.161432 0.0255132 0.0226724
440 4 0.338568 0.474487 0.977328
441 4 0.588568 0.275513 0.477328
442 4 0.411432 0.724487 0.522672
443 4 0.661432 0.525513 0.0226724
444 4 0.838568 0.974487 0.977328
445 4 0.588568 0.775513 0.477328
446 4 0.411432 0.224487 0.522672
447 4 0.661432 0.0255132 0.0226724
448 4 0.838568 0.474487 0.977328
449 4 0.19322 0.163636 0.727528
450 4 0.80678 0.836364 0.272472
451 4 0.0567805 0.413636 0.772472
452 4 0.44322 0.0863644 0.227528
453 4 0.19322 0.663636 0.727528
454 4 0.80678 0.336364 0.272472
455 4 0.0567805 0.913636 0.772472
456 4 0.44322 0.586364 0.227528
457 4 0.69322 0.163636 0.727528
458 4 0.30678 0.836364 0.272472
459 4 0.55678 0.413636 0.772472
460 4 0.94322 0.0863644 0.227528
461 4 0.69322 0.663636 0.727528
462 4 0.30678 0.336364 0.272472
463 4 0.55678 0.913636 0.772472
464 4 0.94322 0.586364 0.227528
465 4 0.20499 0.189871 0.891953
466 4 0.79501 0.810129 0.108047
467 4 0.0450105 0.439871 0.608047
468 4 0.45499 0.0601295 0.391953
469 4 0.204989 0.689871 0.891953
470 4 0.79501 0.310129 0.108047
471 4 0.0450105 0.939871 0.608047
472 4 0.45499 0.560129 0.391953
473 4 0.70499 0.189871 0.891953
474 4 0.29501 0.810129 0.108047
475 4 0.54501 0.439871 0.608047
476 4 0.95499 0.0601295 0.391953
477 4 0.70499 0.689871 0.891953
478 4 0.295011 0.310129 0.108047
479 4 0.54501 0.939871 0.608047
480 4 0.95499 0.560129 0.391953
481 4 0.429535 0.38738 0.855301
482 4 0.570465 0.61262 0.144699
483 4 0.820465 0.63738 0.644699
484 4 0.679535 0.86262 0.355301
485 4 0.429535 0.88738 0.855301
486 4 0.570465 0.11262 0.144699
487 4 0.820465 0.13738 0.644699
488 4 0.679535 0.36262 0.355301
489 4 0.929535 0.38738 0.855301
490 4 0.070465 0.61262 0.144699
491 4 0.320465 0.63738 0.644699
492 4 0.179535 0.86262 0.355301
493 4 0.929535 0.88738 0.855301
494 4 0.070465 0.11262 0.144699
495 4 0.320465 0.13738 0.644699
496 4 0.179535 0.36262 0.355301
497 4 0.398911 0.355183 0.995492
498 4 0.601089 0.644817 0.00450816
499 4 0.851089 0.605183 0.504508
500 4 0.648911 0.894817 0.495492
501 4 0.398911 0.855183 0.995492
502 4 0.601089 0.144817 0.00450817
503 4 0.851089 0.105183 0.504508
504 4 0.648911 0.394817 0.495492
505 4 0.898911 0.355183 0.995492
506 4 0.101089 0.644817 0.00450816
507 4 0.351089 0.605183 0.504508
508 4 0.148911 0.894817 0.495492
509 4 0.898911 0.855183 0.995492
510 4 0.101089 0.144817 0.00450816
511 4 0.351089 0.105183 0.504508
512 4 0.148911 0.394817 0.495492
513 4 0.298294 0.44964 0.643562
514 4 0.701706 0.55036 0.356438
515 4 0.951706 0.69964 0.856438
516 4 0.548294 0.80036 0.143562
517 4 0.298294 0.94964 0.643562
518 4 0.701706 0.0503604 0.356438
519 4 0.951706 0.19964 0.856438
520 4 0.548294 0.30036 0.143562
521 4 0.798294 0.44964 0.643562
522 4 0.201706 0.55036 0.356438
523 4 0.451706 0.69964 0.856438
524 4 0.0482939 0.80036 0.143562
525 4 0.798294 0.94964 0.643562
526 4 0.201706 0.0503604 0.356438
527 4 0.451706 0.19964 0.856438
528 4 0.0482939 0.30036 0.143562
529 4 0.387291 0.393392 0.61388
530 4 0.612709 0.606608 0.38612
531 4 0.862709 0.643392 0.88612
532 4 0.637291 0.856608 0.11388
533 4 0.387291 0.893392 0.61388
534 4 0.612709 0.106608 0.38612
535 4 0.862709 0.143392 0.88612
536 4 0.637291 0.356608 0.11388
537 4 0.887291 0.393392 0.61388
538 4 0.112709 0.606608 0.38612
539 4 0.362709 0.643392 0.88612
540 4 0.137291 0.856608 0.11388
541 4 0.887291 0.893392 0.61388
542 4 0.112709 0.106608 0.38612
543 4 0.362709 0.143392 0.88612
544 4 0.137291 0.356608 0.11388
545 4 0.197813 0.461764 0.824095
546 4 0.802187 0.538236 0.175905
547 4 0.0521874 0.711764 0.675905
548 4 0.447813 0.788236 0.324095
549 4 0.197813 0.961764 0.824095
550 4 0.802187 0.038236 0.175905
551 4 0.0521874 0.211764 0.675905
552 4 0.447813 0.288236 0.324095
553 4 0.697813 0.461764 0.824095
554 4 0.302187 0.538236 0.175905
555 4 0.552187 0.711764 0.675905
556 4 0.947813 0.788236 0.324095
557 4 0.697813 0.961764 0.824095
558 4 0.302187 0.038236 0.175905
559 4 0.552187 0.211764 0.675905
560 4 0.947813 0.288236 0.324095
561 4 0.19825 0.41411 0.965592
562 4 0.80175 0.58589 0.0344081
563 4 0.0517504 0.66411 0.534408
564 4 0.44825 0.83589 0.465592
565 4 0.19825 0.91411 0.965592
566 4 0.80175 0.0858897 0.0344081
567 4 0.0517504 0.16411 0.534408
568 4 0.44825 0.33589 0.465592
569 4 0.69825 0.41411 0.965592
570 4 0.30175 0.58589 0.0344081
571 4 0.55175 0.66411 0.534408
572 4 0.94825 0.83589 0.465592
573 4 0.69825 0.91411 0.965592
574 4 0.30175 0.0858897 0.0344081
575 4 0.55175 0.16411 0.534408
576 4 0.94825 0.33589 0.465592
ITEM: TIMESTEP
1000
ITEM: NUMBER OF ATOMS
576
ITEM: BOX BOUNDS xy xz yz pp pp pp
-5.3696514258318091e+00 1.9255724968055553e+01 3.8087819429926195e-01
-8.9197567607032757e-01 2.5972866506845957e+01 -4.1988051250753928e+00
-6.3838455239183833e-01 1.3451711235091786e+01 -3.1108680924276957e-02
ITEM: ATOMS id type xs ys zs
1 1 0.242043 0.315798 0.870575
2 1 0.754699 0.674138 0.125159
3 1 0.0228686 0.558405 0.643505
4 1 0.467119 0.937037 0.346963
5 1 0.229278 0.814024 0.854547
6 1 0.75477 0.171276 0.139788
7 1 0.0112883 0.0788933 0.635031
8 1 0.496756 0.456883 0.36993
9 1 0.745897 0.32768 0.899714
10 1 0.258588 0.678737 0.118702
11 1 0.521033 0.557824 0.604569
13 1 0.744574 0.825942 0.860776
14 1 0.248441 0.192591 0.126165
15 1 0.524803 0.0682531 0.629138
16 1 0.00275738 0.435934 0.381352
17 1 0.169455 0.302209 0.717405
19 1 0.0654529 0.569105 0.812423
20 1 0.401664 0.940865 0.183512
21 1 0.165986 0.805931 0.693421
23 1 0.0848532 0.0639539 0.78877
24 1 0.430881 0.459117 0.206121
25 1 0.6718 0.311533 0.746755
26 1 0.335043 0.701997 0.268248
27 1 0.570668 0.557136 0.771791
29 1 0.682293 0.822658 0.696794
30 1 0.328833 0.183824 0.280595
31 1 0.589447 0.0446219 0.785996
33 1 0.270948 0.242268 0.728471
34 1 0.723102 0.745203 0.280196
36 1 0.5069 0.992495 0.192027
37 1 0.277978 0.756051 0.701673
38 1 0.715018 0.222231 0.30554
40 1 0.540534 0.503278 0.197695
41 1 0.769153 0.253269 0.749465
42 1 0.225779 0.742497 0.281203
43 1 0.467975 0.50588 0.759298
45 1 0.786299 0.769214 0.698988
46 1 0.226433 0.227574 0.313076
47 1 0.478233 0.99778 0.766712
48 1 0.0247586 0.500602 0.215257
49 1 0.307459 0.27641 0.881928
50 1 0.687646 0.706554 0.123804
52 1 0.534005 0.972916 0.354185
53 1 0.299715 0.783464 0.856479
54 1 0.684106 0.195954 0.145996
56 1 0.566073 0.483029 0.361259
58 1 0.187494 0.708789 0.122958
59 1 0.452794 0.526774 0.59592
60 1 0.0465938 0.972458 0.379155
62 1 0.181725 0.216632 0.149746
63 1 0.454013 0.037761 0.618875
64 1 0.0657953 0.466793 0.374078
65 1 0.32152 0.286676 0.72931
66 1 0.682832 0.694507 0.285306
68 1 0.55659 0.943783 0.212971
69 1 0.321186 0.806449 0.717217
70 1 0.678879 0.169856 0.295128
72 1 0.580776 0.451681 0.221691
74 1 0.194013 0.687621 0.280282
75 1 0.417008 0.554428 0.731432
76 1 0.0493948 0.949203 0.225182
78 1 0.183686 0.175869 0.291117
79 1 0.437675 0.0476863 0.767898
80 1 0.0658859 0.448546 0.213335
81 1 0.222599 0.346251 0.711878
83 1 0.0188428 0.615196 0.768264
84 1 0.452808 0.893442 0.202815
85 1 0.21231 0.856003 0.709216
87 1 0.0367954 0.111906 0.789477
88 1 0.474296 0.408295 0.225642
89 1 0.719943 0.358331 0.740348
90 1 0.303309 0.647454 0.277463
91 1 0.519604 0.603569 0.742014
93 1 0.730777 0.870186 0.719974
94 1 0.284496 0.134812 0.257844
95 1 0.549738 0.0971435 0.790658
97 2 0.242299 0.329679 0.94227
98 2 0.755475 0.665226 0.0512847
99 2 0.0403565 0.553379 0.576252
100 2 0.457515 0.927981 0.41693
101 2 0.227844 0.819824 0.929719
102 2 0.758759 0.169298 0.0652362
103 2 0.00788096 0.0921298 0.563167
104 2 0.495592 0.457309 0.440856
105 2 0.744834 0.338618 0.97269
106 2 0.254022 0.665943 0.0453234
107 2 0.535871 0.5615 0.536877
109 2 0.736226 0.830709 0.932965
110 2 0.243187 0.194944 0.0508714
111 2 0.531791 0.0785528 0.56187
112 2 0.00668038 0.428773 0.457953
113 2 0.115971 0.310376 0.673606
115 2 0.114172 0.582619 0.862853
116 2 0.346508 0.931173 0.135432
117 2 0.112013 0.811956 0.651124
119 2 0.137511 0.0727609 0.825457
120 2 0.375132 0.453829 0.158966
121 2 0.616508 0.319081 0.701007
122 2 0.393515 0.700761 0.30173
123 2 0.622195 0.569048 0.820325
125 2 0.62819 0.833289 0.651991
126 2 0.384401 0.177721 0.319143
127 2 0.644903 0.0444684 0.832429
129 2 0.284042 0.211655 0.688878
130 2 0.7045 0.776155 0.318554
132 2 0.523504 0.0197474 0.149235
133 2 0.299564 0.730544 0.657256
134 2 0.691322 0.245532 0.349793
136 2 0.562067 0.527986 0.15386
137 2 0.785744 0.218673 0.715182
138 2 0.204128 0.77124 0.319391
139 2 0.446905 0.476718 0.79913
140 2 0.00952213 0.0281721 0.171611
142 2 0.215578 0.250075 0.371431
143 2 0.454809 0.963791 0.790642
144 2 0.0343953 0.531091 0.173646
145 2 0.334408 0.271784 0.95665
146 2 0.654017 0.709487 0.0503766
148 2 0.560232 0.984518 0.429031
149 2 0.325455 0.772638 0.932441
150 2 0.650122 0.205438 0.0726
152 2 0.597962 0.498589 0.433446
154 2 0.155076 0.713197 0.0491708
155 2 0.431725 0.515706 0.518609
156 2 0.0786116 0.986601 0.447869
158 2 0.145069 0.234776 0.0853781
159 2 0.426956 0.0340922 0.539374
160 2 0.101747 0.472278 0.447459
161 2 0.361874 0.278156 0.691245
162 2 0.637216 0.697104 0.313277
164 2 0.603537 0.94774 0.186547
165 2 0.367781 0.801287 0.686959
166 2 0.634927 0.168356 0.327391
168 2 0.620042 0.445317 0.183524
170 2 0.156163 0.689766 0.324094
171 2 0.370399 0.553961 0.755451
172 2 0.0843687 0.953503 0.180603
174 2 0.146212 0.169972 0.336291
175 2 0.392631 0.03779 0.796506
176 2 0.107207 0.449484 0.172715
177 2 0.197301 0.377344 0.663883
179 2 0.043413 0.651199 0.792584
180 2 0.424181 0.861472 0.168687
181 2 0.180684 0.889505 0.669879
183 2 0.0698155 0.143844 0.830073
184 2 0.442489 0.375435 0.193309
185 2 0.69135 0.391523 0.702869
186 2 0.345618 0.620003 0.312721
187 2 0.542466 0.640587 0.771775
189 2 0.704032 0.904348 0.683107
190 2 0.321991 0.101031 0.275
191 2 0.581605 0.123314 0.845279
193 3 0.172664 0.294381 0.820347
195 3 0.0829596 0.544657 0.725413
196 3 0.401429 0.956792 0.282174
197 3 0.165939 0.790519 0.793266
199 3 0.0792712 0.0532924 0.686406
200 3 0.431169 0.477443 0.303881
201 3 0.678827 0.304408 0.850358
202 3 0.320975 0.709901 0.161427
203 3 0.582574 0.537188 0.678415
205 3 0.680265 0.804397 0.79358
206 3 0.316783 0.211912 0.183814
207 3 0.586814 0.0377542 0.683681
209 3 0.109588 0.320596 0.841331
211 3 0.154606 0.561847 0.718156
212 3 0.336987 0.94559 0.313877
213 3 0.0972383 0.802352 0.814022
215 3 0.144535 0.0686553 0.659888
216 3 0.364248 0.463573 0.328808
217 3 0.61489 0.326034 0.875174
218 3 0.383897 0.69527 0.123237
219 3 0.652085 0.557054 0.668751
221 3 0.614509 0.819144 0.82358
222 3 0.378315 0.200126 0.142676
223 3 0.657049 0.052619 0.667195
225 3 0.192282 0.254391 0.681009
227 3 0.0332819 0.534811 0.868479
228 3 0.435407 0.978905 0.136529
229 3 0.202184 0.767262 0.64968
231 3 0.0647829 0.0194345 0.840347
232 3 0.46068 0.496947 0.15385
233 3 0.692401 0.265602 0.700744
234 3 0.303737 0.74158 0.314669
235 3 0.541604 0.517509 0.820052
237 3 0.715021 0.786123 0.643907
238 3 0.302539 0.216912 0.343188
239 3 0.557439 0.000543554 0.820367
241 3 0.168947 0.251405 0.570944
243 3 0.0855072 0.493923 0.925393
244 3 0.390595 0.995368 0.0365755
245 3 0.160045 0.751054 0.551392
247 3 0.090792 0.0279275 0.948636
248 3 0.429582 0.496586 0.0444608
249 3 0.679983 0.272724 0.591454
250 3 0.3331 0.741919 0.424463
251 3 0.565897 0.496375 0.922044
253 3 0.665599 0.753186 0.568469
254 3 0.349714 0.226463 0.442434
255 3 0.569021 0.00293954 0.929016
257 3 0.287041 0.226444 0.831708
258 3 0.702859 0.757275 0.175464
260 3 0.516313 0.0173036 0.288208
261 3 0.291754 0.73307 0.798185
262 3 0.69024 0.245745 0.2094
264 3 0.557785 0.527992 0.293699
266 3 0.20172 0.756248 0.176601
267 3 0.464183 0.483563 0.665868
268 3 0.0237586 0.0168148 0.313492
270 3 0.198265 0.258875 0.226098
271 3 0.461977 0.986441 0.661776
272 3 0.0511594 0.516656 0.317371
273 3 0.226827 0.194623 0.847709
274 3 0.755398 0.790338 0.148206
275 3 0.0258465 0.451288 0.718364
276 3 0.457327 0.0526776 0.298958
277 3 0.233964 0.697505 0.804163
278 3 0.739997 0.283592 0.186709
279 3 0.023393 0.959009 0.683594
280 3 0.500522 0.564728 0.300298
281 3 0.736377 0.208954 0.8847
282 3 0.247081 0.79409 0.148168
283 3 0.519574 0.444221 0.669289
285 3 0.735174 0.714593 0.808981
286 3 0.247137 0.301076 0.208706
287 3 0.518525 0.953571 0.638256
288 3 0.0013052 0.554315 0.346209
289 3 0.352569 0.300333 0.830672
290 3 0.64825 0.682046 0.18311
292 3 0.585526 0.944488 0.318213
293 3 0.344896 0.815867 0.821416
294 3 0.64784 0.161525 0.191848
296 3 0.6096 0.445352 0.326854
298 3 0.15087 0.678271 0.17971
299 3 0.3949 0.552041 0.624373
300 3 0.0894483 0.944788 0.327075
302 3 0.147049 0.176699 0.187905
303 3 0.403998 0.0631324 0.665035
304 3 0.104252 0.439467 0.314609
305 3 0.403939 0.334724 0.898077
306 3 0.604768 0.639912 0.126222
308 3 0.618871 0.903548 0.388142
309 3 0.3831 0.849763 0.90526
310 3 0.581682 0.137475 0.127565
312 3 0.661712 0.422651 0.415062
314 3 0.116136 0.633389 0.119806
315 3 0.359133 0.597937 0.567571
316 3 0.137882 0.905792 0.384993
318 3 0.0872204 0.153871 0.111018
319 3 0.367786 0.108903 0.607811
320 3 0.156405 0.400489 0.370301
321 3 0.279142 0.330514 0.670124
322 3 0.732606 0.656503 0.342457
324 3 0.516375 0.899559 0.163737
325 3 0.270956 0.850372 0.665394
326 3 0.73409 0.128669 0.341985
328 3 0.532674 0.408305 0.178188
329 3 0.777359 0.343594 0.692079
330 3 0.249482 0.650014 0.330437
331 3 0.457408 0.597908 0.778561
332 3 0.00354982 0.903338 0.193296
334 3 0.23296 0.132275 0.318502
335 3 0.488071 0.0867584 0.825927
336 3 0.0146301 0.408874 0.170858
337 3 0.321862 0.375564 0.654219
338 3 0.69865 0.60673 0.3602
340 3 0.56258 0.852605 0.164744
341 3 0.309292 0.900814 0.671326
342 3 0.695961 0.0784721 0.340127
344 3 0.571194 0.357321 0.18075
346 3 0.217801 0.598948 0.338537
347 3 0.412291 0.645646 0.776817
348 3 0.0431704 0.85561 0.1765
350 3 0.192984 0.0823943 0.304593
351 3 0.451671 0.132353 0.856657
352 3 0.0447737 0.36034 0.13771
353 3 0.25015 0.360458 0.815694
354 3 0.758773 0.6303 0.18895
355 3 0.00497197 0.611134 0.656401
356 3 0.473168 0.886393 0.308464
357 3 0.231454 0.865609 0.815456
358 3 0.758189 0.119965 0.181746
359 3 0.00885147 0.126675 0.685408
360 3 0.4984 0.404141 0.331873
361 3 0.747954 0.373257 0.84238
362 3 0.269594 0.633102 0.17619
363 3 0.507028 0.610956 0.63518
365 3 0.750991 0.877466 0.825207
366 3 0.249713 0.137795 0.151241
367 3 0.525919 0.113587 0.688658
369 3 0.225327 0.408571 0.851252
371 3 0.0448403 0.649797 0.614587
372 3 0.447746 0.83732 0.341199
373 3 0.19115 0.907968 0.848419
375 3 0.0497576 0.166987 0.650007
376 3 0.458483 0.366058 0.372505
377 3 0.71063 0.41917 0.864064
378 3 0.30105 0.587282 0.140586
379 3 0.556314 0.649869 0.611489
381 3 0.709355 0.917729 0.863909
382 3 0.280243 0.100976 0.0950672
383 3 0.567062 0.157781 0.664005
385 4 0.0512343 0.319677 0.776804
387 4 0.20597 0.563112 0.792359
388 4 0.280028 0.935462 0.250147
389 4 0.0399194 0.792763 0.75024
391 4 0.203068 0.0583411 0.718139
392 4 0.30992 0.453996 0.260482
393 4 0.556039 0.31199 0.823176
394 4 0.445503 0.706298 0.173439
395 4 0.704839 0.555291 0.742572
397 4 0.554704 0.820176 0.761934
398 4 0.441238 0.20382 0.194378
399 4 0.711215 0.0450767 0.736937
401 4 0.11108 0.326617 0.927801
403 4 0.164901 0.565836 0.635664
404 4 0.339328 0.948042 0.4003
405 4 0.0974121 0.811947 0.899194
407 4 0.140549 0.0887217 0.579966
408 4 0.356601 0.475077 0.411043
409 4 0.618448 0.355234 0.945368
410 4 0.371508 0.687072 0.0349446
411 4 0.659689 0.560613 0.586299
413 4 0.620916 0.819481 0.911688