LAMMPS data file via write_data, version 15 Apr 2020, timestep = 80000

576 atoms
4 atom types

-6.9055691003656250e-01 1.8394557383036318e+01 xlo xhi
-3.0631317377783347e+00 2.8175131249478586e+01 ylo yhi
-3.3397575666884016e-01 1.3147302439368749e+01 zlo zhi
2.7560212478922441e+00 -2.9753529073758838e+00 8.3409997728086396e-02 xy xz yz

Masses

1 12.0107
2 1.00794
3 14.0067
4 15.9994

Atoms # full

387 1 4 -1.4979010679787888e-01 6.7849755375010457e-01 1.9195235796249907e+01 8.3817358702705906e+00 0 0 0
135 1 2 1.3774098394960774e-01 -3.3781893491139137e-01 -9.8852555489938343e-01 -2.2639122374323023e-01 1 1 1
103 1 2 1.6077840244840491e-01 1.5505502667973950e+01 6.8223703785195822e-01 8.2776332954397702e+00 -1 0 0
14 1 1 -2.5002400771394175e-02 3.5466457073426731e+00 -8.7617123406034647e-01 3.1473132473705339e+00 0 0 0
16 1 1 -2.3732615418073980e-02 1.1774143347089425e+00 1.1500790058792850e+01 2.0996743817871435e+00 1 0 0
17 1 1 -2.8654589623966019e-02 3.3113935263275485e-01 6.1794384380890097e+00 8.0435274656125220e+00 0 0 0
23 1 1 -2.6484798943244837e-02 -1.5507200837418340e+00 7.5148231762945494e-01 1.0917371257029849e+01 0 0 0
46 1 1 -2.4891821589652023e-02 2.4949966188849784e+00 8.1587001598696629e-01 5.5999853388784144e+00 0 0 0
48 1 1 -2.5462038751372467e-02 -1.2719995347988977e+00 1.3203541427299768e+01 1.2927107386065570e+01 0 0 -1
62 1 1 -2.0567296494838745e-02 3.5761494548400581e+00 6.4779979457129189e-01 3.4209641836572748e+00 0 0 0
64 1 1 -2.5015963942235462e-02 2.2366066941490867e+00 1.2658914331372923e+01 1.7719678814970932e+00 0 0 0
74 1 1 -2.5159163634127464e-02 6.0460446271356840e+00 1.8972118242490353e+01 3.6951781428464647e+00 0 0 0
76 1 1 -2.6719906180620936e-02 1.3409432833885342e+00 2.5776643725618158e+01 5.5969522703689938e+00 0 0 0
78 1 1 -1.8325329445060677e-02 1.4459954911554684e+00 1.0380039114002910e+00 4.4772455353917948e+00 0 0 0
80 1 1 -2.8934565260180279e-02 -8.2436450187926003e-02 1.2150790670606643e+01 1.3032764825681294e+01 0 0 -1
81 1 1 -3.6620316268431728e-02 1.1940386160575445e+00 7.3551656619040386e+00 7.3709552757699370e+00 0 0 0
87 1 1 -2.2861532021148635e-02 -2.2898054567040873e+00 2.1347890321347762e+00 1.0987723161494982e+01 0 0 0
99 1 2 1.5890923513731375e-01 1.8557760175043803e+01 1.7882130369966134e+01 4.8603273200144139e+00 -1 0 0
110 1 2 1.4597279544601430e-01 4.1638343704078729e+00 -1.2205710713567868e+00 2.2977704659248221e+00 0 0 0
112 1 2 1.5477674294574445e-01 1.0713911048697267e+00 1.1485711409840018e+01 3.2675985160808310e+00 1 0 0
113 1 2 1.5128153801470098e-01 -6.2457200097624632e-01 6.2759607604072940e+00 7.4948593443871570e+00 0 0 0
119 1 2 1.5571948794214652e-01 -5.0254594563897115e-01 9.3002139887393609e-01 1.0824152824146221e+01 0 0 0
142 1 2 1.4288732274576357e-01 2.4975422852922051e+00 1.6127355699231281e+00 6.3589717430441004e+00 0 0 0
158 1 2 1.5409948219145439e-01 4.3536628117259237e+00 1.1580113452921506e+00 2.7954549788023497e+00 0 0 0
160 1 2 1.4640559970120570e-01 2.5615290434625066e+00 1.3078601170526330e+01 2.7878321447334682e+00 0 0 0
170 1 2 1.4028782658655001e-01 5.7999616201157949e+00 1.9364169491158798e+01 4.6934950913135243e+00 0 0 0
172 1 2 1.4429777068989469e-01 2.0900010115098917e+00 2.6134192116357784e+01 4.8562797620698754e+00 0 0 0
174 1 2 1.5904336672264008e-01 8.9479461798883841e-01 1.9906587555819497e+00 4.7567619099440588e+00 0 0 0
176 1 2 1.4365420781118771e-01 7.4971577927626543e-01 1.2288109286868803e+01 1.2266328872900369e+01 0 0 -1
177 1 2 1.4833942692941329e-01 6.3245695496799836e-01 7.8904463702203351e+00 6.6188180655804176e+00 0 0 0
183 1 2 1.5332867018758367e-01 -1.5672242825273632e+00 3.0410493079253014e+00 1.1040339122660301e+01 0 0 0
193 1 3 2.1184333579624154e-02 1.6767715861716281e-01 6.6020728477479231e+00 9.4866643160276034e+00 0 0 0
195 1 3 2.3672046624819483e-02 1.8517534077327898e+01 1.7561935858142238e+01 7.0567693395399234e+00 -1 0 0
199 1 3 3.7119535731202802e-02 -1.9297539132936685e+00 6.6136211379153487e-02 9.5640801010746372e+00 0 0 0
211 1 3 2.5746447964477498e-01 1.3473521983857406e-01 1.8927216317364216e+01 7.2443342254053213e+00 0 0 0
215 1 3 2.4585493923296733e-01 -8.7970210779889868e-01 4.5204975229644173e-01 8.4986492866978338e+00 0 0 0
225 1 3 2.4240884222901261e-02 8.6940574323558195e-01 4.7658667214670078e+00 7.9290528864987948e+00 0 0 0
231 1 3 3.7533874764383302e-02 -1.7646135660498894e+00 -1.4338505108686839e-01 1.2116707047404997e+01 0 0 0
241 1 3 2.2492611853265687e-01 8.2243306663514382e-01 4.1596021095251974e+00 6.4996511088646596e+00 0 0 0
243 1 3 2.3592157658856241e-01 -2.7971430920590823e-01 1.5647882737641400e+01 9.3314691089043791e+00 0 0 0
245 1 3 2.4057581433673381e-01 3.6061859345570713e+00 2.3587884756791837e+01 9.6110698547971882e+00 0 0 0
247 1 3 2.2357918690091627e-01 1.9127377844678697e+00 4.7638594111315014e-01 -1.5874376422435399e-01 0 0 1
270 1 3 2.4954866888473343e-02 3.8748747359238633e+00 9.8906807654673123e-01 4.9186790850666844e+00 0 0 0
272 1 3 2.7435259059265665e-02 1.7558816447000747e+00 1.3723463451204292e+01 8.5283882464400818e-01 0 0 0
273 1 3 2.4577185626718737e-01 1.4613027361671982e+00 4.5267971727687710e+00 1.0875731996478182e+01 0 0 0
275 1 3 2.5856824219366470e-01 -2.0054395170440564e-01 1.3533846870338323e+01 6.0116310103436410e+00 0 0 0
298 1 3 1.9518591803541915e-02 5.8692376176996355e+00 2.0135865133091084e+01 2.7136160064206964e+00 0 0 0
300 1 3 2.4856883142565001e-02 1.7829849589355167e+00 2.6300146914232634e+01 6.9506414306441657e+00 0 0 0
302 1 3 2.9032214947905362e-02 2.2532344519950356e+00 1.3141886894641344e+00 3.1701201053595356e+00 0 0 0
304 1 3 2.8909716402244701e-02 3.4475315598185139e+00 1.2112492911823143e+01 9.7480489184499985e-01 0 0 0
314 1 3 2.4713084090475793e-01 5.6312954414624627e+00 2.1497537706751149e+01 3.3334691737057245e+00 0 0 0
316 1 3 2.3618145270670110e-01 2.8694394728399084e+00 2.7401029514328204e+01 6.7195660355458244e+00 0 0 0
318 1 3 2.5697782540293079e-01 2.3346921236439280e+00 2.8322787878027018e+00 2.8297253393498054e+00 0 0 0
320 1 3 2.4422789474294457e-01 4.6145213289063829e+00 1.3102728771890050e+01 1.1008561723276529e+00 0 0 0
334 1 3 3.3940176937550429e-02 5.5649031464011367e-01 -1.7726230241560526e-01 4.3375791768160319e+00 0 0 0
336 1 3 2.3656469642514222e-02 -5.1893089377588009e-01 1.0744913096896054e+01 1.2578361385119958e+01 0 0 -1
346 1 3 2.4785155775873655e-01 3.6630453390084705e+00 1.8167034705226815e+01 3.4343871842978890e+00 0 0 0
348 1 3 2.4773617670657028e-01 2.5655013301202230e+00 2.3529489345235937e+01 5.9567104998625107e+00 0 0 0
350 1 3 2.4432237380991059e-01 -4.1154213106488347e-01 2.8611313146679862e-02 3.1495769471837951e+00 0 0 0
352 1 3 2.3168822338400821e-01 6.5345681312176751e-01 9.7516370758666628e+00 1.2629598967122780e+01 0 0 -1
375 1 3 2.5218412514846866e-01 1.6636487666050339e+01 2.9618305564604830e+00 8.6084658678508728e+00 -1 0 0
391 1 4 -2.1347016710022287e-01 2.7407977452099308e-01 8.5125854448503047e-01 8.9177059204885776e+00 0 0 0
403 1 4 -1.7054129006000943e-01 4.2155538668930959e-01 1.9615665817654349e+01 6.2277011545634302e+00 0 0 0
407 1 4 -1.8746168529244889e-01 -1.0624676155991977e+00 2.2454996724146792e-01 7.2394204312468959e+00 0 0 0
419 1 4 -2.1019533877300625e-01 5.0104329555340676e-01 1.4661860248259789e+01 9.0191245614728945e+00 0 0 0
421 1 4 -1.9306142441778854e-01 3.1990413382405416e+00 2.2951454896731068e+01 1.0676613763555553e+01 0 0 0
423 1 4 -2.6616595194475756e-01 1.2107946246148082e+00 7.4545275160895708e-01 8.7213406491306777e-01 0 1 1
433 1 4 -1.7387249994725085e-01 -2.0996036628694048e-01 4.1653786665392758e+00 5.7766126416911181e+00 0 0 0
435 1 4 -1.8031255490578599e-01 1.2367612144621631e-01 1.6562817768000496e+01 1.0137835460858240e+01 0 0 -1
437 1 4 -2.2745994062266295e-01 2.9801754101817282e+00 2.4596565505073631e+01 9.1726931523063282e+00 0 0 0
439 1 4 -1.9916245602809449e-01 3.1749982759647368e+00 5.5360956012490448e-01 -1.0986729153676264e-01 0 0 0
449 1 4 -2.0575351029426409e-01 1.0468975300784833e+00 3.3237654635721965e+00 1.0713202107688664e+01 0 0 0
455 1 4 -1.9858797293641850e-01 -2.0242797428324133e+00 -2.4982121536378301e+00 1.1076089647800153e+01 0 1 0
465 1 4 -1.7284037727955492e-01 1.1238853023549429e+00 5.2193740418376606e+00 1.1904844155688908e+01 0 0 0
467 1 4 -2.0114880359181728e-01 4.1765862992736191e-01 1.3377652416952298e+01 4.8962113938665093e+00 0 0 0
490 1 4 -1.8181219814490629e-01 4.9201633452617237e+00 2.1632672819674308e+01 4.3889142091528477e+00 0 0 0
494 1 4 -1.6910330405651378e-01 1.6245074400831281e+00 3.6549772117239394e+00 3.5074911222955776e+00 0 0 0
496 1 4 -2.1567804032328902e-01 5.3356031198405320e+00 1.3333886905269942e+01 6.3253512554647506e-02 0 0 0
506 1 4 -1.6516881072938119e-01 5.9482457949584369e+00 2.2561663147261289e+01 2.6666353338124438e+00 0 0 0
508 1 4 -2.0219144865304378e-01 1.7799802377367557e-01 -2.9156321550798614e+00 7.5993441256594600e+00 0 1 0
510 1 4 -1.4656787326516779e-01 2.9654833340698530e+00 3.2152260235125256e+00 1.7806426103745552e+00 0 0 0
512 1 4 -2.3021679915078230e-01 4.8238181738476058e+00 1.3809092300170441e+01 2.1499402966074079e+00 0 0 0
524 1 4 -1.9349656702403004e-01 2.5803820809883633e+00 2.2443881335464468e+01 6.6231048284463032e+00 0 0 0
526 1 4 -2.0469220447717601e-01 -9.4032620549494383e-01 -8.9878743136430295e-01 2.4277879761708103e+00 0 0 0
528 1 4 -1.9385598954679012e-01 4.2328756506427334e-01 8.5607427813458994e+00 1.2990761894749941e+01 0 0 -1
538 1 4 -1.7877364657198952e-01 2.7840020692398970e+00 1.7362288708742092e+01 2.9551492380669444e+00 0 0 0
544 1 4 -2.0017425984951620e-01 1.8734201822731236e+00 1.0122255383708357e+01 1.2430342867506509e+01 0 0 -1
551 1 4 -2.2865194438427552e-01 -1.5676909806238366e+00 3.8375048779849150e+00 8.9166494152480347e+00 0 0 0
368 1 3 2.3064469497765083e-02 1.6659623382666311e+00 1.0187657621832116e+01 1.5582308969786145e+00 1 0 0
480 1 4 -2.0781208117766325e-01 3.7072421434641756e-01 1.4717175785632115e+01 2.5423979633595768e+00 1 0 0
1 1 1 -2.4534845832622200e-02 1.3089042989055000e+00 7.5307427331714241e+00 9.7428153179749071e+00 0 0 0
30 1 1 -1.7169139680725899e-02 2.5371483197007212e+00 -1.5874913207915911e+00 5.1334709840675954e+00 0 0 0
33 1 1 -2.9663026294469833e-02 2.3023739500073406e+00 4.8111843693759910e+00 8.4503752926080136e+00 0 0 0
49 1 1 -2.5053188253782461e-02 2.6718682174170247e+00 6.6135253097956817e+00 9.9476441120484349e+00 0 0 0
65 1 1 -2.8512624009203881e-02 3.1315437775861534e+00 6.0056873495848073e+00 7.7681050422453879e+00 0 0 0
94 1 1 -2.7134524168825599e-02 1.4323737452658500e+00 -1.4178706409846273e+00 4.0346559807311282e+00 0 0 0
97 1 2 1.4631605798948377e-01 1.1490696803800264e+00 8.2554194653165283e+00 1.0595285514810934e+01 0 0 0
145 1 2 1.5360908417097771e-01 3.1420439053926197e+00 6.7878521255231679e+00 1.0930075089067886e+01 0 0 0
171 1 2 1.4604158845742474e-01 3.4934461076297652e+00 1.4845141710109051e+01 8.8327326206999146e+00 0 0 0
190 1 2 1.4531941959683065e-01 7.1107198724984122e-01 -2.2518274030421987e+00 4.0540067836019258e+00 0 0 0
238 1 3 4.2998947926409431e-02 2.3641876936890807e+00 -5.6948085497595757e-01 6.2287913433878730e+00 0 0 0
257 1 3 2.9806983202055770e-02 2.4581835559562335e+00 5.1125534948354669e+00 9.8977367137512591e+00 0 0 0
286 1 3 2.4122768074808440e-01 4.4771453925121900e+00 2.4137518642124691e+00 5.0504626415085943e+00 0 0 0
289 1 3 2.5639347039308390e-02 3.6634715801164184e+00 6.9042643769058749e+00 8.9036554513448944e+00 0 0 0
305 1 3 2.6053685116138181e-01 5.0940227613616091e+00 6.5213294547382219e+00 9.3329732027099599e+00 0 0 0
315 1 3 2.4280251252304857e-01 3.6817607815777862e+00 1.3627535506923319e+01 6.6585070377041395e+00 0 0 0
321 1 3 2.5082309920229254e-02 2.4222290942837761e+00 6.8150240147342540e+00 6.7085313915535343e+00 0 0 0
330 1 3 2.7188311003263143e-02 5.1599199230877337e+00 1.7784454047688698e+01 3.3258426736999867e+00 0 0 0
332 1 3 3.6499580996339959e-02 1.2136796872527440e+00 2.4249931103723874e+01 5.5926699465128866e+00 0 0 0
337 1 3 2.4305777661173994e-01 3.2803562819881358e+00 7.9936642517497756e+00 6.2558283990839509e+00 0 0 0
347 1 3 2.5266402343047983e-01 4.6262802638589982e+00 1.7167277519066666e+01 8.3214260329826306e+00 0 0 0
353 1 3 1.6493740175569808e-02 1.4050712893711181e+00 8.3341078646999538e+00 8.5241783566951934e+00 0 0 0
366 1 3 1.3280785891928583e-02 2.1311244487595888e+00 -1.3784939959783629e+00 2.6968240467619915e+00 0 0 0
382 1 3 2.4365543494979519e-01 2.1187856106564329e+00 -2.7499272715196246e+00 1.9534625638028622e+00 0 0 0
462 1 4 -2.1466172707514070e-01 4.6165014097028667e+00 2.8789411711469732e+00 6.2340462233319602e+00 0 0 0
478 1 4 -1.8635890783661863e-01 5.0468479875842238e+00 2.9690708532358228e+00 4.0242645800032220e+00 0 0 0
491 1 4 -2.0189005635402318e-01 2.5636476407584130e+00 1.4273438602468666e+01 6.7723690014714109e+00 0 0 0
497 1 4 -1.6666802518088397e-01 5.8541857809504876e+00 5.8191289236972867e+00 8.5870877757565953e+00 0 0 0
507 1 4 -1.8507537388177436e-01 3.7179154608586522e+00 1.2599848678000704e+01 5.8791813746563264e+00 0 0 0
513 1 4 -1.5899234825641037e-01 4.5748023544753584e+00 7.8761136537639569e+00 6.1926545196996328e+00 0 0 0
522 1 4 -1.6908879958327150e-01 3.3169744139311659e+00 1.9321311978864063e+01 3.8885687887349265e+00 0 0 0
523 1 4 -2.1002880189988971e-01 5.3211562074776264e+00 1.8227937683970261e+01 8.0593309147585099e+00 0 0 0
529 1 4 -1.8417294058482514e-01 2.7243241042041388e+00 8.9787068588069197e+00 5.6797195292971532e+00 0 0 0
539 1 4 -1.8974773537098064e-01 3.4547395096197482e+00 1.7062011356054807e+01 7.8460023359440694e+00 0 0 0
554 1 4 -1.8103470419370060e-01 3.6625549099051886e+00 1.7374606363444808e+01 -3.2982284343942553e-01 0 0 0
558 1 4 -1.8361418170370042e-01 4.1223681257666875e+00 2.7571603669682474e+01 2.3951705323332364e+00 0 -1 0
574 1 4 -1.5176978209808856e-01 2.8929929366921896e+00 -2.9665664955591309e+00 9.4301733231098517e-01 0 0 0
147 1 2 1.5699427217558978e-01 1.8322980481000208e+01 1.5589195700329238e+01 4.3517753166193431e+00 0 0 0
259 1 3 3.1389845905836954e-02 1.8430900352901155e+01 1.4940862688667767e+01 6.4766566267473271e+00 0 0 0
384 1 3 2.4488142397920903e-01 9.4828543327641990e-01 9.0002929314063103e+00 2.1958120428508550e+00 1 0 0
576 1 4 -1.7126437820236839e-01 7.7516618519195246e-01 8.8795801340072167e+00 3.4879998419450788e+00 1 0 0
144 1 2 1.4045155495407036e-01 -9.8930622861040085e-01 1.3951780403608733e+01 1.2133325035136973e+01 0 0 -1
288 1 3 2.4366350956148322e-01 1.9547266995744682e+01 1.4385857542315367e+01 1.3160889411184666e+00 0 0 0
42 1 1 -2.1822444470700794e-02 7.5755877644648537e+00 1.8624417008213481e+01 3.6417445053552622e+00 0 0 0
58 1 1 -2.2986099579993952e-02 7.0798376317593048e+00 2.0098744932223660e+01 1.8108372784526368e+00 0 0 0
117 1 2 1.4308359168975671e-01 5.0426942135501491e+00 2.4799882085939391e+01 7.5566329007632760e+00 0 0 0
154 1 2 1.5090032942198425e-01 7.2405276422488845e+00 2.1076290400982057e+01 1.3276585598462298e+00 0 0 0
229 1 3 2.2497302931268663e-02 4.7820392574501183e+00 2.3061040694093297e+01 8.8106675021049341e+00 0 0 0
389 1 4 -2.0324294117951680e-01 5.5513585029926658e+00 2.6862419499095527e+01 7.9292383454026591e+00 0 0 0
417 1 4 -2.5856396987105018e-01 1.9556712744677847e+00 3.7013749064489554e+00 6.0114082605742594e+00 0 0 0
453 1 4 -2.2468316902075053e-01 5.6048604826400581e+00 2.0978630282467755e+01 1.2273682083448211e+01 0 0 0
492 1 4 -2.6492166599151590e-01 3.5642251094254180e+00 2.7465684376717931e+01 5.6371690903015779e+00 0 0 0
540 1 4 -2.0762327830756186e-01 3.6390748948565546e+00 2.4050318248354589e+01 5.5019259918530032e+00 0 0 0
10 1 1 -2.3093339637547703e-02 6.7462779056176343e+00 1.9076200822737182e+01 6.7048366938069459e-01 0 0 0
43 1 1 -2.4266988806085146e-02 5.0707546751763193e+00 1.3518399365758057e+01 9.7822589927820740e+00 0 0 0
59 1 1 -1.4813482081515630e-02 6.0859449048803960e+00 1.3109114988316346e+01 7.6450793506046342e+00 0 0 0
75 1 1 -2.3352746228944100e-02 4.6029163844404017e+00 1.4663909773700265e+01 8.8317038309191940e+00 0 0 0
90 1 1 -3.1572353515378009e-02 5.5632087329971309e+00 1.7382108572180716e+01 1.8978588253747599e+00 0 0 0
91 1 1 -2.6731847284435121e-02 6.7055705020816392e+00 1.5815948987189408e+01 9.1660988226389488e+00 0 0 0
106 1 2 1.5184180928936183e-01 6.6614657280136189e+00 1.9649742520672177e+01 -2.9853436860473564e-01 0 0 0
120 1 2 1.4929384595598205e-01 8.4426273167888279e+00 1.1793597725887317e+01 1.7981936942645511e+00 0 0 0
126 1 2 1.6160180571132166e-01 2.4212241134959207e+00 -2.5538907549249856e+00 5.7007881696386224e+00 0 0 0
129 1 2 1.3752001927253846e-01 2.8054431172051038e+00 3.8433069367774202e+00 8.2215974985246572e+00 0 0 0
133 1 2 1.4764231815452541e-01 4.8959456794621374e+00 2.1456384494799810e+01 1.0019260387199193e+01 0 0 0
155 1 2 1.5216085256035436e-01 6.1950331930878617e+00 1.2477161785188381e+01 6.7380639021463358e+00 0 0 0
161 1 2 1.5295022518870705e-01 4.0695964605807093e+00 5.6194972095435460e+00 7.3188151362424332e+00 0 0 0
186 1 2 1.3730032703963724e-01 4.9436209622180893e+00 1.6495543497115538e+01 1.6250203194807138e+00 0 0 0
187 1 2 1.4441855459990027e-01 7.1091361584848682e+00 1.6804123427730591e+01 9.5042326150928726e+00 0 0 0
200 1 3 2.5150920562451239e-02 8.2897156312896456e+00 1.0068803447945776e+01 3.0278225909552376e+00 0 0 0
206 1 3 3.4865287866624302e-02 3.9192087379203926e+00 -1.6328846745965799e+00 4.3849358636422968e+00 0 0 0
216 1 3 2.4947880405724418e-01 7.0122054478039608e+00 9.8306257802624959e+00 2.2034035060584323e+00 0 0 0
222 1 3 2.4877642632871466e-01 7.1007141640899549e+00 2.8154654196553700e+01 4.0491647291492505e+00 0 -1 0
254 1 3 2.5252711723697135e-01 3.4717283124152098e+00 -6.5105043437420429e-01 7.3394936623728135e+00 0 0 0
283 1 3 2.4706907432123099e-01 4.6038774781865506e+00 1.1286255535038723e+01 8.6932606749368482e+00 0 0 0
299 1 3 1.8451500438153186e-02 4.9262262932435092e+00 1.4095380716896038e+01 7.4232193360029477e+00 0 0 0
331 1 3 3.4369330607415469e-02 5.1814574710632400e+00 1.5987183863458366e+01 9.2019173573938371e+00 0 0 0
362 1 3 1.3315201611544474e-02 5.3776007031563866e+00 1.8524323065191311e+01 8.8889991302453097e-01 0 0 0
363 1 3 2.2036780343722601e-02 7.2637718537434335e+00 1.5451346134525981e+01 7.7784386593936361e+00 0 0 0
378 1 3 2.4845461623211232e-01 1.6678034969220557e+00 1.8271732618415562e+01 1.3058334523942550e+01 0 0 -1
379 1 3 2.3905204316415951e-01 8.5289580847005730e+00 1.6265398686587169e+01 7.4413356129600929e+00 0 0 0
392 1 4 -2.0439155498415068e-01 6.3618671984959629e+00 1.0879394988560831e+01 1.8363901995229424e+00 0 0 0
398 1 4 -1.8393579332346427e-01 6.9127604317135027e+00 2.7183825559481498e+01 4.8821683838852143e+00 0 -1 0
404 1 4 -1.9499974810272480e-01 9.5963908493960801e+00 2.5642111741492531e+01 -1.2794559705801278e-01 0 0 0
408 1 4 -1.6167498336763370e-01 6.4838284857118555e+00 8.6810216138066281e+00 2.0369453286510497e+00 0 0 0
414 1 4 -2.2487226431732760e-01 7.8608184683298070e+00 2.7971381332488697e+01 3.0389414079926551e+00 0 -1 0
430 1 4 -2.1698071721023254e-01 3.4683122406207012e+00 2.6312180088961323e-01 8.2430694338297670e+00 0 0 0
440 1 4 -1.8119535043139667e-01 9.8984184364240111e+00 1.4024224837030960e+01 1.9761946349294934e+00 0 0 1
481 1 4 -1.6707592685498329e-01 5.4909692784799002e+00 6.7880310086970095e+00 1.0528186939101911e+01 0 0 0
495 1 4 -1.9698309807628775e-01 3.0204059064282567e+00 -2.8616304320829800e-01 1.2688360821140581e+01 0 0 0
511 1 4 -1.6452921327904901e-01 3.1113474766772646e+00 -1.8063668305291112e+00 1.1041100057609347e+01 0 0 0
564 1 4 -1.6522471063909672e-01 8.3261552652853830e+00 2.4377862388934624e+01 1.5984921727427299e+00 0 0 0
570 1 4 -1.7714113253323746e-01 2.0259649179586301e+00 1.8845815769781375e+01 1.1984532443829998e+01 0 0 -1
560 1 4 -1.6402235852514985e-01 4.7172352068999412e-01 8.0457958830093439e+00 1.4606329930470581e+00 1 0 0
96 1 1 -2.1678886753911504e-02 1.3273067875203381e+00 1.0247628125048385e+01 -2.8919273048870098e-02 1 0 0
208 1 3 1.5181297706137926e-02 1.8993426814790638e+01 1.1746379942435910e+01 1.3431776884926057e+00 0 0 0
416 1 4 -1.5841770057075655e-01 1.7685019267196477e+01 1.0948309910101397e+01 3.2070232432449490e+00 0 0 0
3 1 1 -2.1101421123396566e-02 1.7922997600799068e+01 1.7360074322234272e+01 5.6718202806805822e+00 -1 0 0
369 1 3 2.4975107671855845e-01 5.0617319200008914e-01 9.5825908292150377e+00 8.4612558929814572e+00 0 0 0
224 1 3 2.4980995794237176e-01 1.7731396600096929e+01 1.1114343673179530e+01 1.9416926699538637e+00 0 0 0
21 1 1 -2.7010393966876545e-02 5.6731726055308371e+00 2.4126600698388788e+01 8.1748485807503943e+00 0 0 0
138 1 2 1.5467077749658795e-01 8.0852035119614349e+00 1.8578444006882066e+01 4.6486942029780307e+00 0 0 0
197 1 3 2.0822472135431404e-02 6.3541068859174104e+00 2.4993083066919834e+01 9.2125741669752941e+00 0 0 0
213 1 3 2.5031819910333525e-01 6.4462466547953436e+00 2.6454802437956904e+01 8.7360866696024608e+00 0 0 0
266 1 3 4.2352187487076857e-02 8.2201040240070906e+00 1.9688457161190716e+01 2.7898562343889601e+00 0 0 0
277 1 3 2.4979068967396048e-01 6.4158638707491900e+00 2.1971635472998155e+01 1.2201180520011045e+01 0 0 0
11 1 1 -2.2785272521308679e-02 7.4393185521915504e+00 1.3879040930334504e+01 7.8788157589092958e+00 0 0 0
24 1 1 -2.4343236092685031e-02 9.1398177772771145e+00 1.1209206687002471e+01 2.4330063243174385e+00 0 0 0
26 1 1 -2.8414195765416570e-02 7.0503562551802990e+00 1.6953330734860501e+01 1.8180339907813328e+00 0 0 0
37 1 1 -2.6481526976273841e-02 5.6669900605245029e+00 2.2175092708788274e+01 9.6917137951196093e+00 0 0 0
100 1 2 1.6368627443964126e-01 9.4881807317996483e+00 2.6286836403405939e+01 1.8936092855709497e+00 0 0 0
232 1 3 3.4874594358032557e-02 9.6925958421771199e+00 1.2122788267811320e+01 3.5278174944881586e+00 0 0 0
234 1 3 4.3223132046075502e-02 7.7940540272869905e+00 1.7188794901011928e+01 3.1345489318942690e+00 0 0 0
248 1 3 2.4860571692033151e-01 1.0350030726323077e+01 1.3414049302314151e+01 3.0204224713351540e+00 0 0 0
250 1 3 2.4289786621596424e-01 7.3857551110358513e+00 1.6056982254043763e+01 4.1109537059117107e+00 0 0 0
267 1 3 3.3426785833970574e-02 5.6720916623930355e+00 1.2396022609357438e+01 8.9372496762427449e+00 0 0 0
319 1 3 2.5467743393321224e-01 3.5979999466571613e+00 -8.3418850591956106e-01 1.1686067406993063e+01 0 0 0
426 1 4 -2.4845318737289324e-01 6.6619661941688131e+00 1.6334407234355716e+01 5.1296368095065343e+00 0 0 0
442 1 4 -2.0620256287388133e-01 7.8005852302714302e+00 1.4855171249230562e+01 3.9678139046073015e+00 0 0 0
446 1 4 -2.1050967720169922e-01 4.4121954525417193e+00 -1.4953553210719044e+00 7.2086101659894917e+00 0 0 0
456 1 4 -2.5349176275773733e-01 8.2996444765252697e+00 1.1809392782099186e+01 5.8529485952217852e+00 0 0 0
459 1 4 -1.7505527367581553e-01 4.8030670603198127e+00 1.0469942727779086e+01 7.7005299546945860e+00 0 0 0
543 1 4 -1.9810507793788162e-01 3.7252763694428963e+00 2.5805153519228954e+00 1.1259932219685918e+01 0 0 0
555 1 4 -2.0510388701564097e-01 8.6866996075483662e+00 1.7411020756986613e+01 7.9959756639053552e+00 0 0 0
571 1 4 -1.7690567992292683e-01 9.0532823242798983e+00 1.5995315727053860e+01 6.2852240407143736e+00 0 0 0
5 1 1 -2.4460064712983804e-02 7.6931837958504392e+00 2.4361085123614249e+01 9.4197989213027675e+00 0 0 0
85 1 1 -2.1839400578378909e-02 6.8310872794421558e+00 2.3421459393291197e+01 7.3326175318648055e+00 0 0 0
181 1 2 1.4985687445478013e-01 6.8984686531094503e+00 2.3824149604437313e+01 6.2816249791438974e+00 0 0 0
282 1 3 2.4189551729382860e-01 9.4504403780585289e+00 1.9159989058617583e+01 2.0879017972932949e+00 0 0 0
357 1 3 2.1184751807025792e-02 8.0886342058225473e+00 2.3977996273100150e+01 7.9697094334684930e+00 0 0 0
405 1 4 -1.9991332485739077e-01 7.1480269058784556e+00 2.7351339050999009e+01 9.3447780295561547e+00 0 0 0
53 1 1 -2.2264745523324900e-02 7.7142716777660292e+00 2.3127722486116713e+01 1.0401881699975444e+01 0 0 0
69 1 1 -2.3970575140145216e-02 6.7951158024592990e+00 2.1505101538528368e+01 8.8530303542328941e+00 0 0 0
107 1 2 1.4930109923102636e-01 8.1588242568764215e+00 1.3637804582469773e+01 7.0437499331293338e+00 0 0 0
122 1 2 1.4284092064635093e-01 7.0644074173292459e+00 1.5826171138621550e+01 1.6662805124446485e+00 0 0 0
165 1 2 1.4711860171163976e-01 6.6639359614633884e+00 2.0436981359682928e+01 8.8711431513783392e+00 0 0 0
184 1 2 1.5534027367989206e-01 1.0189955429154065e+01 1.0763423034543608e+01 5.4885341824849043e-01 0 0 0
202 1 3 4.1092260281028296e-02 7.6327636187749324e+00 1.7758292215295526e+01 6.6369860670003200e-01 0 0 0
218 1 3 2.4309789746549856e-01 4.5695739083319147e+00 1.7105975622096626e+01 1.2789309159758423e+01 0 0 -1
261 1 3 2.9613097957860109e-02 6.3413072352184532e+00 2.2847634213364103e+01 1.0931805908447158e+01 0 0 0
293 1 3 2.9750555486015892e-02 8.1029446847840951e+00 2.1857217124330180e+01 9.5961352901629304e+00 0 0 0
325 1 3 2.6825929137744529e-02 6.7039676288685923e+00 2.1919947735494187e+01 7.3893243999075784e+00 0 0 0
341 1 3 2.3358257442617142e-01 7.6109908866342915e+00 2.1136738437355671e+01 6.4051531069299141e+00 0 0 0
351 1 3 2.4362964480476945e-01 4.9535175670349991e+00 2.7651818855573538e+00 1.0920679692100077e+01 0 0 0
372 1 3 2.4944477059445780e-01 9.1820853023349951e+00 2.3818435561061161e+01 2.3472112388257704e+00 0 0 0
376 1 3 2.4108573946307976e-01 9.1946363755747118e+00 8.4851920785158637e+00 5.2210912642215834e-01 0 0 0
394 1 4 -2.2060908658004327e-01 4.9181632047783062e+00 1.5874177885266644e+01 1.2720535032019468e+01 0 0 -1
410 1 4 -1.9824225306829030e-01 4.4421910209959776e+00 1.7779659958695618e+01 1.1708803861333761e+01 0 0 -1
458 1 4 -1.7594925613084159e-01 1.0254204421394068e+01 1.8361666009307498e+01 2.7243902702915039e+00 0 0 0
527 1 4 -2.0022718275220919e-01 5.3732799290729734e+00 3.6820349578743388e+00 1.0121230629939882e+01 0 0 0
552 1 4 -2.0002005977004869e-01 6.3686223392383710e+00 9.1878315154657866e+00 1.2911966765995210e+01 0 0 -1
373 1 3 2.3801960595551969e-01 8.7335917496094222e+00 2.5089827858428741e+01 7.1585010372251814e+00 0 0 0
549 1 4 -2.2474980345189266e-01 8.7189039316934824e+00 2.4965635661990380e+01 5.8826421656621246e+00 0 0 0
485 1 4 -2.0957157596900886e-01 8.0142017509077697e+00 1.9565890780109417e+01 1.0510600497357105e+01 0 0 0
517 1 4 -2.1015036620091895e-01 8.1346474841334562e+00 2.1708974617440045e+01 5.3683921567784729e+00 0 0 0
533 1 4 -2.2116660150414502e-01 7.8393721159784588e+00 1.9917441827922104e+01 6.6584969927413509e+00 0 0 0
568 1 4 -1.5914783367426943e-01 8.6707194406562458e+00 7.3001210027304975e+00 5.0105689604652059e-01 0 0 0
32 1 1 -2.7691985154381392e-02 1.9250768965996322e+01 1.1256914697679926e+01 -8.9826000194600797e-02 0 0 0
192 1 2 1.5483650977582850e-01 -2.0135342086305252e+00 9.3389046454297695e+00 1.3053245348859093e+01 1 0 -1
545 1 4 -1.7216812937449660e-01 -3.9069608994506266e-01 9.6817972629001456e+00 7.5679569556638073e+00 0 0 0
561 1 4 -1.9590211946009081e-01 6.1302819674423015e-01 1.0447624159991866e+01 9.4055479237159378e+00 0 0 0
493 1 4 -2.0477386033516617e-01 2.6686111469467466e+00 2.1670903792604889e+01 1.3929369366263724e+00 1 0 1
209 1 3 2.4892406782573204e-01 -1.1672431363040126e+00 7.1982492479285050e+00 9.8754617626353287e+00 0 0 0
451 1 4 -1.6846603978872196e-01 -4.9161625624696059e-01 1.2518288550457502e+01 6.7306296768333826e+00 0 0 0
567 1 4 -1.6974687532385965e-01 1.6340325855035388e+01 2.6687717221155491e+00 7.3776239797204681e+00 -1 0 0
279 1 3 2.3446927775471005e-01 1.5878828300961281e+01 -2.2231154180998800e+00 1.0677033326865455e+01 -1 1 0
51 1 1 -2.3320461454138401e-02 1.7815920494034689e+01 1.5789923675985552e+01 5.3348419805706069e+00 0 0 0
364 1 3 3.2760446891651071e-02 3.3843334719978735e-01 2.4220148336623353e+01 7.9977606571365403e+00 1 0 0
537 1 4 -1.9296547220463656e-01 1.7231179216336823e+01 8.1823724066952508e+00 4.2472530944683506e-02 0 0 1
509 1 4 -1.6967299854782930e-01 9.3627289127229663e-01 2.1375453775455405e+01 2.7764166269576003e+00 1 0 1
156 1 2 1.4803606521240523e-01 5.9049820595178248e-01 2.7580167023448041e+01 8.4016822613066005e+00 0 0 0
471 1 4 -2.5231234084173848e-01 1.5315225508536825e+01 -2.9582917408334031e+00 9.7908436804386074e+00 -1 1 0
39 1 1 -2.8619503096928497e-02 -3.2475149498707530e+00 -2.9712571487000350e-01 1.2346119532450775e+01 1 0 0
499 1 4 -1.9947874433631596e-01 1.6704117414980232e+01 1.3774434740475922e+01 3.3250304381016207e+00 0 0 0
139 1 2 1.4727587882800425e-01 4.3032844992208537e+00 1.3008130528295645e+01 1.0400160544628077e+01 0 0 0
212 1 3 2.3957593282709783e-01 1.0837169671984242e+01 2.5360281402402908e+01 1.0243462547654386e-01 0 0 0
475 1 4 -2.0919772666189385e-01 3.7756078233704415e+00 1.1026322445507880e+01 9.6093860437479250e+00 0 0 0
235 1 3 3.9443784064528996e-02 5.9976543017892219e+00 1.4086677591375526e+01 1.0853224683771190e+01 0 0 0
388 1 4 -2.3196742939544474e-01 8.6458088994002562e+00 2.4964718144082937e+01 1.2723388966702277e+01 0 0 -1
424 1 4 -1.8488984498298677e-01 1.1441665587903119e+01 1.3861122467301186e+01 3.5598192050305357e+00 0 0 0
468 1 4 -2.5411462050062128e-01 8.7796824502861224e+00 -2.5039250023213171e+00 1.1660785625869408e+00 0 0 0
101 1 2 1.4681611591505581e-01 8.3957090864112303e+00 2.5198095629277109e+01 9.7922852469380466e+00 0 0 0
469 1 4 -1.9578574636317195e-01 1.0158479340144794e+01 2.2225203896908098e+01 -3.0203047976448838e-01 0 0 1
474 1 4 -1.8687808773117320e-01 9.7845456846315741e+00 1.9603547351818509e+01 9.4630574363696351e-01 0 0 0
4 1 1 -1.8632395120772478e-02 1.0376646922243337e+01 2.5989147386405566e+01 2.4868684353949049e+00 0 0 0
8 1 1 -1.9642754151942526e-02 9.1618621815702568e+00 8.9019166655767776e+00 3.1060928265404955e+00 0 0 0
27 1 1 -2.3404966149279626e-02 7.2106974270355302e+00 1.4690433493916032e+01 1.0132114549048843e+01 0 0 0
52 1 1 -1.6714570166540751e-02 1.0899822091360955e+01 2.7157277370918731e+01 3.5175343893865127e+00 0 0 0