ITEM: TIMESTEP
0
ITEM: NUMBER OF ATOMS
336
ITEM: BOX BOUNDS xy xz yz pp pp pp
0.0000000000000000e+00 2.6364000320399999e+01 0.0000000000000000e+00
0.0000000000000000e+00 1.1574000358599999e+01 0.0000000000000000e+00
0.0000000000000000e+00 1.0708999633800000e+01 0.0000000000000000e+00
ITEM: ATOMS id type xs ys zs
1 1 0.0930182 0.352353 0.445493
2 1 0.906961 0.647626 0.554505
3 1 0.156977 0.647642 0.945493
4 1 0.343021 0.352356 0.054507
5 1 0.90697 0.852365 0.0545059
6 1 0.0930217 0.147644 0.945493
7 1 0.34303 0.147635 0.554506
8 1 0.156981 0.852354 0.445493
9 1 0.593009 0.352345 0.445491
10 1 0.406989 0.647653 0.554509
11 1 0.656988 0.647653 0.945491
12 1 0.843005 0.352341 0.0545102
13 1 0.406995 0.852341 0.0545102
14 1 0.593012 0.147653 0.945491
15 1 0.843011 0.147653 0.554509
16 1 0.656991 0.852344 0.445491
17 1 0.0246422 0.231392 0.339686
18 1 0.975364 0.768617 0.660344
19 1 0.225359 0.76861 0.839681
20 1 0.274641 0.231391 0.160318
21 1 0.975361 0.731388 0.160332
22 1 0.0246413 0.26861 0.839682
23 1 0.274639 0.268613 0.660329
24 1 0.225358 0.731392 0.339685
25 1 0.524644 0.231394 0.339696
26 1 0.475356 0.768607 0.660306
27 1 0.725356 0.768607 0.839694
28 1 0.774645 0.231396 0.160301
29 1 0.475355 0.731396 0.160301
30 1 0.524644 0.268607 0.839694
31 1 0.774644 0.268607 0.660305
32 1 0.725356 0.731394 0.339696
33 1 0.0751842 0.376658 0.208389
34 1 0.924812 0.62334 0.791606
35 1 0.174815 0.623341 0.70839
36 1 0.325185 0.376658 0.29161
37 1 0.924814 0.876659 0.291608
38 1 0.0751851 0.123341 0.70839
39 1 0.325186 0.12334 0.791608
40 1 0.174815 0.876658 0.20839
41 1 0.575182 0.376656 0.208388
42 1 0.424817 0.623343 0.791612
43 1 0.674817 0.623343 0.708388
44 1 0.825181 0.376654 0.291614
45 1 0.424819 0.876654 0.291614
46 1 0.575183 0.123343 0.708388
47 1 0.825183 0.123343 0.791612
48 1 0.674818 0.876656 0.208388
49 2 0.126036 0.296317 0.428292
50 2 0.873961 0.703684 0.571715
51 2 0.123963 0.703683 0.92829
52 2 0.376036 0.296317 0.0717091
53 2 0.873962 0.796316 0.0717122
54 2 0.126036 0.203683 0.928291
55 2 0.376038 0.203684 0.571712
56 2 0.123964 0.796317 0.428292
57 2 0.626034 0.296317 0.428296
58 2 0.373965 0.703683 0.571705
59 2 0.623965 0.703683 0.928295
60 2 0.876033 0.296317 0.0717014
61 2 0.373967 0.796317 0.0717015
62 2 0.626035 0.203683 0.928295
63 2 0.876034 0.203683 0.571704
64 2 0.623966 0.796317 0.428297
65 2 0.103617 0.400475 0.53021
66 2 0.896382 0.599515 0.469792
67 2 0.146383 0.599522 0.0302098
68 2 0.353617 0.400477 0.96979
69 2 0.896382 0.900481 0.969791
70 2 0.103617 0.0995231 0.0302099
71 2 0.353618 0.099519 0.469791
72 2 0.146383 0.900476 0.53021
73 2 0.603616 0.400469 0.530211
74 2 0.396384 0.59953 0.469789
75 2 0.646384 0.599529 0.0302112
76 2 0.853616 0.400466 0.969788
77 2 0.396384 0.900466 0.969788
78 2 0.603616 0.0995293 0.0302112
79 2 0.853616 0.0995298 0.469789
80 2 0.646384 0.900469 0.530211
81 2 0.986003 0.198132 0.352932
82 2 0.0139979 0.801867 0.647068
83 2 0.263997 0.801868 0.852932
84 2 0.236003 0.198132 0.147068
85 2 0.0139976 0.698133 0.147068
86 2 0.986003 0.301868 0.852932
87 2 0.236002 0.301867 0.647068
88 2 0.263997 0.698132 0.352932
89 2 0.486003 0.198132 0.352931
90 2 0.513997 0.801868 0.647069
91 2 0.763997 0.801868 0.852931
92 2 0.736003 0.198131 0.147069
93 2 0.513997 0.698131 0.147069
94 2 0.486003 0.301868 0.852931
95 2 0.736003 0.301868 0.647069
96 2 0.763997 0.698132 0.352931
97 2 0.0483806 0.156425 0.317849
98 2 0.951619 0.843574 0.68215
99 2 0.201619 0.843575 0.81785
100 2 0.29838 0.156425 0.18215
101 2 0.951619 0.656426 0.18215
102 2 0.0483806 0.343575 0.81785
103 2 0.298381 0.343574 0.68215
104 2 0.201619 0.656425 0.31785
105 2 0.54838 0.156423 0.317849
106 2 0.451619 0.843577 0.682151
107 2 0.70162 0.843576 0.817849
108 2 0.798381 0.156423 0.182151
109 2 0.45162 0.656423 0.182151
110 2 0.54838 0.343577 0.817849
111 2 0.798381 0.343577 0.682151
112 2 0.70162 0.656423 0.317849
113 2 0.107193 0.32034 0.183375
114 2 0.892804 0.679663 0.816626
115 2 0.142807 0.679661 0.683375
116 2 0.357193 0.320339 0.316625
117 2 0.892805 0.820338 0.316626
118 2 0.107193 0.179661 0.683375
119 2 0.357194 0.179662 0.816625
120 2 0.142807 0.82034 0.183375
121 2 0.607191 0.320342 0.183376
122 2 0.392809 0.679659 0.816624
123 2 0.642809 0.679659 0.683376
124 2 0.85719 0.320343 0.316623
125 2 0.39281 0.820343 0.316623
126 2 0.607191 0.179659 0.683376
127 2 0.857191 0.179659 0.816624
128 2 0.642809 0.820342 0.183376
129 2 0.0737386 0.440509 0.132443
130 2 0.92626 0.559486 0.867554
131 2 0.176261 0.55949 0.632443
132 2 0.323739 0.440509 0.367557
133 2 0.92626 0.940512 0.367555
134 2 0.0737389 0.0594906 0.632443
135 2 0.323739 0.0594886 0.867555
136 2 0.176261 0.940509 0.132443
137 2 0.573738 0.440505 0.132441
138 2 0.426262 0.559494 0.867559
139 2 0.676262 0.559494 0.632441
140 2 0.823737 0.440504 0.36756
141 2 0.426263 0.940504 0.36756
142 2 0.573738 0.0594938 0.632441
143 2 0.823738 0.0594941 0.867559
144 2 0.676262 0.940505 0.132441
145 3 0.0881629 0.437708 0.334077
146 3 0.911839 0.562287 0.665941
147 3 0.161837 0.562291 0.834073
148 3 0.338163 0.437709 0.165926
149 3 0.911838 0.937711 0.165934
150 3 0.0881627 0.062291 0.834074
151 3 0.338162 0.0622892 0.665933
152 3 0.161837 0.937708 0.334075
153 3 0.588164 0.437708 0.334084
154 3 0.411836 0.562292 0.665917
155 3 0.661836 0.562292 0.834082
156 3 0.838165 0.437708 0.165911
157 3 0.411835 0.937708 0.165911
158 3 0.588164 0.0622922 0.834082
159 3 0.838164 0.0622921 0.665917
160 3 0.661836 0.937708 0.334085
161 3 0.0453713 0.275431 0.467224
162 3 0.95463 0.724614 0.53276
163 3 0.204629 0.724579 0.967227
164 3 0.295371 0.275424 0.0327742
165 3 0.954629 0.775405 0.032768
166 3 0.0453711 0.224576 0.967226
167 3 0.295371 0.224594 0.532768
168 3 0.204629 0.775428 0.467225
169 3 0.545372 0.275448 0.467221
170 3 0.454628 0.724556 0.532778
171 3 0.704628 0.724556 0.967222
172 3 0.795373 0.275457 0.0327791
173 3 0.454627 0.775457 0.0327792
174 3 0.545372 0.224557 0.967222
175 3 0.795372 0.224555 0.532778
176 3 0.704628 0.775449 0.467221
177 3 0.0256927 0.302606 0.214367
178 3 0.974308 0.697394 0.785632
179 3 0.224307 0.697395 0.714367
180 3 0.275693 0.302606 0.285632
181 3 0.974308 0.802607 0.285631
182 3 0.0256925 0.197395 0.714367
183 3 0.275692 0.197395 0.785633
184 3 0.224307 0.802605 0.214367
185 3 0.525694 0.302606 0.214366
186 3 0.474306 0.697395 0.785634
187 3 0.724306 0.697395 0.714366
188 3 0.775694 0.302606 0.285634
189 3 0.474306 0.802606 0.285634
190 3 0.525694 0.197395 0.714366
191 3 0.775694 0.197395 0.785634
192 3 0.724306 0.802606 0.214366
193 3 0.11848 0.558612 0.334327
194 3 0.881524 0.441399 0.66567
195 3 0.131521 0.441391 0.834328
196 3 0.368479 0.55861 0.165673
197 3 0.881522 0.058605 0.165671
198 3 0.118479 0.94139 0.834328
199 3 0.368478 0.941395 0.665671
200 3 0.131521 0.0586109 0.334327
201 3 0.618481 0.558618 0.334325
202 3 0.381519 0.441384 0.665674
203 3 0.631519 0.441384 0.834326
204 3 0.868482 0.558622 0.165676
205 3 0.381518 0.0586216 0.165676
206 3 0.618481 0.941384 0.834326
207 3 0.868481 0.941383 0.665675
208 3 0.631519 0.0586182 0.334325
209 3 0.00373289 0.356487 0.531785
210 3 0.996283 0.643487 0.468195
211 3 0.24627 0.643507 0.031789
212 3 0.253731 0.356491 0.968212
213 3 0.996276 0.856501 0.968204
214 3 0.00373046 0.143509 0.0317879
215 3 0.253724 0.143499 0.468205
216 3 0.246268 0.856489 0.531786
217 3 0.503739 0.356478 0.531779
218 3 0.496262 0.643519 0.46822
219 3 0.746263 0.643519 0.0317802
220 3 0.753742 0.356474 0.968224
221 3 0.496258 0.856474 0.968224
222 3 0.503737 0.143519 0.0317803
223 3 0.753738 0.14352 0.46822
224 3 0.746261 0.856478 0.531778
225 3 0.978749 0.390357 0.203779
226 3 0.0212551 0.609639 0.796221
227 3 0.271253 0.609642 0.703779
228 3 0.228748 0.390357 0.296221
229 3 0.0212531 0.890358 0.296221
230 3 0.978748 0.109642 0.703779
231 3 0.228746 0.10964 0.796221
232 3 0.271252 0.890357 0.203779
233 3 0.478751 0.390355 0.203779
234 3 0.52125 0.609644 0.796222
235 3 0.77125 0.609644 0.703778
236 3 0.728752 0.390353 0.296222
237 3 0.521248 0.890353 0.296222
238 3 0.47875 0.109644 0.703778
239 3 0.72875 0.109644 0.796222
240 3 0.771249 0.890355 0.203779
241 4 0.119261 0.618415 0.233762
242 4 0.880741 0.381589 0.766247
243 4 0.130739 0.381586 0.73376
244 4 0.369261 0.618414 0.266239
245 4 0.88074 0.118413 0.266244
246 4 0.119261 0.881586 0.733761
247 4 0.36926 0.881587 0.766243
248 4 0.130739 0.118415 0.233762
249 4 0.619263 0.618417 0.233769
250 4 0.380737 0.381583 0.766233
251 4 0.630738 0.381583 0.733767
252 4 0.869264 0.618418 0.266228
253 4 0.380736 0.118418 0.266228
254 4 0.619262 0.881583 0.733767
255 4 0.869263 0.881583 0.766232
256 4 0.630737 0.118417 0.233769
257 4 0.138781 0.590174 0.437272
258 4 0.861218 0.409827 0.562715
259 4 0.111219 0.409826 0.937275
260 4 0.388781 0.590174 0.0627255
261 4 0.861219 0.0901735 0.0627195
262 4 0.138781 0.909826 0.937275
263 4 0.388781 0.909826 0.56272
264 4 0.111219 0.0901744 0.437273
265 4 0.63878 0.590175 0.437264
266 4 0.36122 0.409825 0.562734
267 4 0.61122 0.409825 0.937266
268 4 0.888779 0.590175 0.0627405
269 4 0.361221 0.0901754 0.0627404
270 4 0.63878 0.909825 0.937266
271 4 0.88878 0.909825 0.562735
272 4 0.61122 0.090175 0.437264
273 4 0.957434 0.320551 0.533038
274 4 0.0425676 0.679449 0.466962
275 4 0.292567 0.679449 0.0330379
276 4 0.207434 0.320551 0.966962
277 4 0.0425672 0.820551 0.966962
278 4 0.957434 0.179449 0.033038
279 4 0.207433 0.179449 0.466962
280 4 0.292566 0.820551 0.533038
281 4 0.457436 0.320553 0.533038
282 4 0.542565 0.679448 0.466962
283 4 0.792565 0.679448 0.033038
284 4 0.707437 0.320554 0.966962
285 4 0.542563 0.820554 0.966962
286 4 0.457435 0.179448 0.033038
287 4 0.707435 0.179447 0.466962
288 4 0.792564 0.820553 0.533038
289 4 0.0188906 0.435327 0.608296
290 4 0.981109 0.564672 0.391703
291 4 0.231109 0.564673 0.108297
292 4 0.268891 0.435327 0.891703
293 4 0.981109 0.935328 0.891703
294 4 0.0188908 0.0646727 0.108297
295 4 0.268891 0.0646721 0.391703
296 4 0.231109 0.935327 0.608297
297 4 0.51889 0.435326 0.608295
298 4 0.48111 0.564674 0.391704
299 4 0.73111 0.564674 0.108296
300 4 0.768889 0.435324 0.891706
301 4 0.481111 0.935324 0.891706
302 4 0.51889 0.0646738 0.108296
303 4 0.76889 0.064674 0.391705
304 4 0.73111 0.935325 0.608295
305 4 0.936062 0.360512 0.25194
306 4 0.0639364 0.639486 0.748062
307 4 0.313938 0.639488 0.75194
308 4 0.186062 0.360512 0.24806
309 4 0.063937 0.860513 0.248061
310 4 0.936062 0.139488 0.75194
311 4 0.186063 0.139487 0.748061
312 4 0.313938 0.860512 0.25194
313 4 0.436061 0.360511 0.251941
314 4 0.563938 0.639489 0.748059
315 4 0.813938 0.639489 0.751941
316 4 0.686061 0.36051 0.248058
317 4 0.563939 0.860511 0.248058
318 4 0.436062 0.139489 0.751941
319 4 0.686062 0.139489 0.748059
320 4 0.813939 0.860511 0.251941
321 4 0.983305 0.480527 0.133986
322 4 0.0166945 0.519479 0.86601
323 4 0.266695 0.519474 0.633987
324 4 0.233305 0.480526 0.366014
325 4 0.0166945 0.980523 0.366012
326 4 0.983305 0.0194739 0.633987
327 4 0.233305 0.0194762 0.866012
328 4 0.266695 0.980527 0.133986
329 4 0.483305 0.480531 0.133983
330 4 0.516695 0.51947 0.866016
331 4 0.766695 0.51947 0.633984
332 4 0.733305 0.480533 0.366018
333 4 0.516695 0.980533 0.366018
334 4 0.483305 0.0194697 0.633984
335 4 0.733305 0.0194695 0.866016
336 4 0.766695 0.980531 0.133983
ITEM: TIMESTEP
1000
ITEM: NUMBER OF ATOMS
336
ITEM: BOX BOUNDS xy xz yz pp pp pp
-1.8067364342076990e+00 2.8015579596538643e+01 -1.0075519357626621e-01
-1.3220754340641441e+00 1.2706256058542532e+01 -5.4401964492823911e-02
-4.8731559846381867e-01 1.1196315232263824e+01 -1.8981973412159062e-01
ITEM: ATOMS id type xs ys zs
1 1 0.0737286 0.382955 0.476481
2 1 0.920436 0.622683 0.535876
3 1 0.172405 0.603062 0.940391
4 1 0.342561 0.312456 0.0480784
5 1 0.92852 0.871271 0.0526745
6 1 0.0821108 0.165798 0.929383
7 1 0.315286 0.115979 0.547119
8 1 0.164837 0.889169 0.440407
9 1 0.580727 0.407937 0.469796
10 1 0.419999 0.592296 0.572876
11 1 0.682486 0.601893 0.940477
12 1 0.8465 0.314923 0.0344263
13 1 0.406145 0.90277 0.0623458
14 1 0.572429 0.0981872 0.957741
15 1 0.828995 0.0783746 0.546966
16 1 0.665368 0.899807 0.451933
17 1 0.0365346 0.266479 0.330678
18 1 0.961994 0.732059 0.678843
19 1 0.202954 0.726108 0.800577
20 1 0.275323 0.255343 0.166323
21 1 0.969564 0.75113 0.17932
22 1 0.0301834 0.238923 0.776674
23 1 0.2755 0.230956 0.692297
24 1 0.209261 0.794735 0.283167
25 1 0.535908 0.276359 0.373389
26 1 0.460657 0.731109 0.674203
27 1 0.715341 0.740779 0.830472
28 1 0.792866 0.233441 0.170296
29 1 0.450749 0.778909 0.171962
30 1 0.545335 0.22824 0.82243
31 1 0.794138 0.200555 0.686699
32 1 0.701838 0.767868 0.321008
33 1 0.0700756 0.422366 0.265449
34 1 0.92843 0.567922 0.748172
35 1 0.186394 0.551023 0.734894
36 1 0.336436 0.3585 0.259216
37 1 0.947379 0.921452 0.260136
38 1 0.0841648 0.106803 0.714271
39 1 0.310136 0.0774862 0.761837
40 1 0.168816 0.954477 0.242694
41 1 0.553114 0.430435 0.262787
42 1 0.448696 0.577141 0.785437
43 1 0.706409 0.57754 0.732234
44 1 0.850856 0.356115 0.253489
45 1 0.423548 0.938018 0.270567
46 1 0.571796 0.0666794 0.736057
47 1 0.824746 0.0471906 0.767793
48 1 0.678499 0.927667 0.235826
49 2 0.107684 0.354312 0.471106
50 2 0.885425 0.655031 0.544089
51 2 0.136182 0.614935 0.930333
52 2 0.364592 0.249794 0.069699
53 2 0.892886 0.848525 0.0612203
54 2 0.110323 0.216121 0.944779
55 2 0.348462 0.151324 0.540586
56 2 0.131436 0.854477 0.419932
57 2 0.614166 0.374183 0.458919
58 2 0.384913 0.618013 0.585219
59 2 0.646598 0.622099 0.926338
60 2 0.870547 0.258448 0.043546
61 2 0.371165 0.869506 0.0685272
62 2 0.60786 0.120824 0.974266
63 2 0.863624 0.108359 0.531516
64 2 0.629232 0.874379 0.441971
65 2 0.0703319 0.411462 0.563445
66 2 0.921757 0.591743 0.452728
67 2 0.177048 0.57638 0.0285434
68 2 0.353419 0.336754 0.964624
69 2 0.930791 0.903543 0.967626
70 2 0.0791561 0.13149 0.0153088
71 2 0.312381 0.0838907 0.460361
72 2 0.163345 0.904708 0.535265
73 2 0.58328 0.449386 0.547361
74 2 0.420819 0.548972 0.492592
75 2 0.682233 0.567158 0.0225769
76 2 0.851704 0.343638 0.948693
77 2 0.403705 0.940847 0.978348
78 2 0.568172 0.0613583 0.043397
79 2 0.821627 0.0390001 0.463226
80 2 0.669404 0.936697 0.537323
81 2 0.010604 0.208573 0.316734
82 2 0.990987 0.786796 0.686513
83 2 0.227545 0.787468 0.794721
84 2 0.239021 0.238298 0.166839
85 2 0.995651 0.695206 0.189991
86 2 0.99748 0.273366 0.762185
87 2 0.246434 0.280797 0.706486
88 2 0.243133 0.763626 0.273935
89 2 0.510583 0.217464 0.382532
90 2 0.48374 0.790843 0.661293
91 2 0.738592 0.805964 0.833027
92 2 0.758236 0.201309 0.178052
93 2 0.478579 0.727714 0.175815
94 2 0.519244 0.284525 0.808915
95 2 0.767091 0.253335 0.696718
96 2 0.727575 0.707065 0.318279
97 2 0.0694596 0.235627 0.300183
98 2 0.930455 0.773596 0.70224
99 2 0.170791 0.762097 0.767888
100 2 0.291052 0.187346 0.192327
101 2 0.937374 0.710876 0.19614
102 2 0.0567644 0.290738 0.752658
103 2 0.304713 0.276253 0.722394
104 2 0.186528 0.740958 0.246057
105 2 0.565363 0.239366 0.342173
106 2 0.430541 0.764656 0.705562
107 2 0.68337 0.774114 0.800245
108 2 0.815077 0.171878 0.187705
109 2 0.421514 0.733162 0.192097
110 2 0.576612 0.27189 0.81042
111 2 0.825503 0.240945 0.705596
112 2 0.668482 0.735928 0.293975
113 2 0.104128 0.397669 0.240309
114 2 0.896767 0.597814 0.785928
115 2 0.152625 0.566477 0.694359
116 2 0.354968 0.302427 0.300248
117 2 0.912967 0.904208 0.289859
118 2 0.107037 0.160155 0.679946
119 2 0.340871 0.11128 0.796049
120 2 0.137699 0.922158 0.212346
121 2 0.581815 0.409036 0.206278
122 2 0.421729 0.592209 0.849522
123 2 0.673019 0.589026 0.697627
124 2 0.872328 0.295568 0.276551
125 2 0.39194 0.912705 0.311812
126 2 0.607253 0.0939997 0.720696
127 2 0.856024 0.0798264 0.796644
128 2 0.646202 0.894406 0.220714
129 2 0.0636815 0.48471 0.209469
130 2 0.935123 0.507415 0.805547
131 2 0.203273 0.491115 0.684344
132 2 0.340729 0.413269 0.324217
133 2 0.961882 0.980586 0.312545
134 2 0.089111 0.0452256 0.657938
135 2 0.302877 0.014739 0.817035
136 2 0.171787 0.0174832 0.191992
137 2 0.5359 0.484764 0.208041
138 2 0.47017 0.528655 0.837302
139 2 0.720754 0.522245 0.671015
140 2 0.854938 0.41827 0.318237
141 2 0.434455 0.999566 0.326594
142 2 0.56294 0.00803191 0.672792
143 2 0.818438 0.987512 0.828689
144 2 0.683337 0.980659 0.165182
145 3 0.0735937 0.468069 0.388726
146 3 0.918986 0.534117 0.625829
147 3 0.178044 0.516747 0.859012
148 3 0.356587 0.388621 0.139749
149 3 0.937153 0.958039 0.136393
150 3 0.0987205 0.0896802 0.843152
151 3 0.318528 0.0327611 0.640683
152 3 0.163028 0.984827 0.370124
153 3 0.570373 0.482715 0.372411
154 3 0.429362 0.522723 0.678331
155 3 0.695168 0.526726 0.845591
156 3 0.862281 0.389911 0.134847
157 3 0.410143 0.982308 0.152802
158 3 0.574294 0.0215784 0.859243
159 3 0.833314 0.00392978 0.64511
160 3 0.672078 0.979877 0.356074
161 3 0.0434543 0.290579 0.458464
162 3 0.9562 0.706254 0.551656
163 3 0.196875 0.706472 0.929096
164 3 0.292911 0.274595 0.0416863
165 3 0.962753 0.781407 0.0540954
166 3 0.0382278 0.224462 0.905353
167 3 0.2842 0.201354 0.563152
168 3 0.196822 0.802173 0.413047
169 3 0.54909 0.321009 0.491062
170 3 0.447835 0.682989 0.552926
171 3 0.707329 0.701835 0.952557
172 3 0.800492 0.262549 0.0445549
173 3 0.441829 0.818506 0.0510727
174 3 0.546157 0.193874 0.947844
175 3 0.796324 0.167079 0.559719
176 3 0.691177 0.803916 0.448722
177 3 0.0336486 0.344572 0.235844
178 3 0.965708 0.65182 0.771096
179 3 0.215584 0.642943 0.715293
180 3 0.286562 0.324952 0.268254
181 3 0.977225 0.830424 0.277266
182 3 0.0374772 0.151225 0.691586
183 3 0.272078 0.15092 0.787475
184 3 0.207781 0.883667 0.203497
185 3 0.521455 0.341241 0.270208
186 3 0.476463 0.671191 0.776989
187 3 0.732422 0.676958 0.728539
188 3 0.802473 0.306908 0.271404
189 3 0.456572 0.848733 0.275337
190 3 0.541488 0.154492 0.719521
191 3 0.789601 0.127108 0.788061
192 3 0.711425 0.841786 0.22334
193 3 0.122205 0.516815 0.395873
194 3 0.875168 0.466032 0.620231
195 3 0.133767 0.448093 0.854957
196 3 0.33951 0.493521 0.106254
197 3 0.891248 0.0183696 0.150638
198 3 0.100212 0.980474 0.892089
199 3 0.36764 0.990986 0.630884
200 3 0.116241 0.0395054 0.386498
201 3 0.620075 0.524186 0.342251
202 3 0.385814 0.458965 0.697417
203 3 0.655271 0.449318 0.823052
204 3 0.850181 0.500625 0.108593
205 3 0.365509 0.0479877 0.150026
206 3 0.617876 0.95387 0.857371
207 3 0.875612 0.935012 0.629083
208 3 0.628051 0.0424536 0.348929
209 3 0.995323 0.300871 0.517788
210 3 0.00514452 0.68671 0.497617
211 3 0.241259 0.711046 0.00491272
212 3 0.260117 0.350025 0.980054
213 3 0.00767189 0.813843 0.991316
214 3 0.99607 0.184606 0.97882
215 3 0.242598 0.212651 0.473837
216 3 0.243281 0.818203 0.478309
217 3 0.503787 0.355171 0.558682
218 3 0.493313 0.68163 0.479103
219 3 0.754507 0.690187 0.0180693
220 3 0.76189 0.326167 0.983886
221 3 0.486934 0.848895 0.985596
222 3 0.49535 0.189758 0.99728
223 3 0.749783 0.171118 0.486352
224 3 0.735502 0.807107 0.526559
225 3 0.983738 0.3871 0.226323
226 3 0.014133 0.607423 0.785122
227 3 0.267908 0.615803 0.70537
228 3 0.253532 0.417749 0.262906
229 3 0.029385 0.85838 0.2788
230 3 0.999636 0.0689223 0.712391
231 3 0.222631 0.10506 0.786075
232 3 0.253637 0.944199 0.204413
233 3 0.470512 0.371085 0.296538
234 3 0.530485 0.652881 0.780289
235 3 0.785675 0.665966 0.744883
236 3 0.764215 0.388022 0.276029
237 3 0.50673 0.893322 0.279552
238 3 0.488489 0.136833 0.691835
239 3 0.738803 0.0862193 0.803397
240 3 0.762078 0.884639 0.219771
241 4 0.134591 0.573753 0.313705
242 4 0.867337 0.408123 0.704338
243 4 0.119078 0.421343 0.756914
244 4 0.318594 0.543912 0.185613
245 4 0.874608 0.027835 0.250163
246 4 0.102581 0.911157 0.81556
247 4 0.387208 0.965411 0.726766
248 4 0.107065 0.104455 0.312593
249 4 0.622329 0.593006 0.271986
250 4 0.377062 0.433372 0.800941
251 4 0.658808 0.398196 0.731013
252 4 0.837597 0.554014 0.193122
253 4 0.349205 0.0769654 0.243302
254 4 0.632253 0.927424 0.757752
255 4 0.900116 0.910569 0.715338
256 4 0.61258 0.0656047 0.249752
257 4 0.145749 0.504168 0.486742
258 4 0.852492 0.464602 0.524212
259 4 0.110135 0.435429 0.945584
260 4 0.352318 0.529595 0.0131533
261 4 0.871579 0.0509454 0.0595071
262 4 0.106679 0.960694 0.996812
263 4 0.381564 0.961211 0.530548
264 4 0.0932739 0.0265367 0.481088
265 4 0.655033 0.496365 0.400265
266 4 0.359699 0.434236 0.610799
267 4 0.626641 0.430427 0.901954
268 4 0.849715 0.531473 0.00462243
269 4 0.350679 0.0803048 0.0518169
270 4 0.63538 0.930199 0.954792
271 4 0.886171 0.912663 0.525343
272 4 0.603521 0.0483128 0.441825
273 4 0.962153 0.24815 0.479983
274 4 0.0385982 0.733759 0.543454
275 4 0.267364 0.784838 0.99172
276 4 0.2172 0.33532 0.984673
277 4 0.045145 0.77863 0.0296063
278 4 0.956343 0.216821 0.962772
279 4 0.206225 0.251419 0.511066
280 4 0.279446 0.778431 0.439045
281 4 0.471657 0.293321 0.563941
282 4 0.527021 0.730612 0.520562
283 4 0.780049 0.764987 0.0310964
284 4 0.723217 0.331693 0.0326901
285 4 0.525082 0.817029 0.0253337
286 4 0.474927 0.26979 0.0117657
287 4 0.715668 0.207909 0.534646
288 4 0.767609 0.745887 0.500306
289 4 0.990959 0.353787 0.607664
290 4 0.0109693 0.635677 0.406871
291 4 0.253022 0.64056 0.0697819
292 4 0.273224 0.422895 0.919793
293 4 0.0085241 0.881362 0.915652
294 4 0.00165329 0.107599 0.0369392
295 4 0.242389 0.151009 0.390484
296 4 0.244238 0.874791 0.567979
297 4 0.501589 0.441052 0.604004
298 4 0.49503 0.638339 0.381196
299 4 0.761785 0.609123 0.0683249
300 4 0.769204 0.357602 0.882996
301 4 0.481062 0.875549 0.882185
302 4 0.474306 0.108219 0.00838347
303 4 0.749203 0.136752 0.383634
304 4 0.739673 0.868879 0.60819
305 4 0.949405 0.329372 0.224337
306 4 0.0360662 0.579776 0.691907
307 4 0.291876 0.61017 0.798302
308 4 0.219275 0.415439 0.199047
309 4 0.057225 0.798375 0.32414
310 4 0.960374 0.0967154 0.748139
311 4 0.189818 0.167601 0.785088
312 4 0.279506 0.928909 0.29263
313 4 0.442742 0.304039 0.322741
314 4 0.555697 0.729989 0.765954
315 4 0.810817 0.742252 0.742056
316 4 0.723665 0.361116 0.301063
317 4 0.540119 0.83227 0.293568
318 4 0.459525 0.19325 0.739183
319 4 0.708073 0.123887 0.741934
320 4 0.792899 0.845349 0.280396
321 4 0.977074 0.477781 0.208593
322 4 0.0336211 0.612956 0.883651
323 4 0.281639 0.589214 0.606666
324 4 0.259744 0.485381 0.339333
325 4 0.041991 0.948689 0.265442
326 4 0.00822942 0.981782 0.680483
327 4 0.214821 0.0155467 0.804412
328 4 0.27139 0.951664 0.102868
329 4 0.455575 0.45552 0.267081
330 4 0.546491 0.570866 0.796597
331 4 0.803256 0.581098 0.730636
332 4 0.772243 0.475589 0.250327
333 4 0.51432 0.981328 0.258641
334 4 0.478295 0.0772952 0.6095
335 4 0.726813 0.059586 0.905805
336 4 0.768145 0.964984 0.166898
ITEM: TIMESTEP
2000
ITEM: NUMBER OF ATOMS
336
ITEM: BOX BOUNDS xy xz yz pp pp pp
-1.3267338539079609e+00 2.7232035115928838e+01 -4.5566469405803917e-01
-1.3499968633845620e+00 1.2809723995604097e+01 -3.0343643211912042e-03
-9.1962867416264515e-01 1.1628628307962659e+01 -1.1427322638044141e-01
ITEM: ATOMS id type xs ys zs
1 1 0.0834448 0.339387 0.438839
2 1 0.914326 0.630066 0.586507
3 1 0.164025 0.642178 0.917769
4 1 0.339589 0.34083 0.0778733
5 1 0.909955 0.833812 0.089663
6 1 0.0837763 0.202846 0.941789
7 1 0.32811 0.153385 0.531782
8 1 0.164478 0.852632 0.440679
9 1 0.594541 0.379731 0.435543
10 1 0.413827 0.634256 0.595355
11 1 0.677445 0.615452 0.90808
12 1 0.849161 0.258232 0.0498556
13 1 0.387783 0.885954 0.0899561
14 1 0.594094 0.142545 0.937222
15 1 0.83266 0.10414 0.554047
16 1 0.629846 0.829014 0.399589
17 1 0.0561028 0.26755 0.259272
18 1 0.952684 0.688097 0.762164
19 1 0.188486 0.733624 0.760306
20 1 0.279549 0.268256 0.20832
21 1 0.954565 0.734994 0.223315
22 1 0.0352492 0.240598 0.774285
23 1 0.305847 0.259469 0.687909
24 1 0.188203 0.7755 0.260652
25 1 0.544982 0.245707 0.339412
26 1 0.445725 0.757823 0.734995
27 1 0.709117 0.759779 0.803844
28 1 0.790417 0.227692 0.201148
29 1 0.421353 0.782634 0.245195
30 1 0.558872 0.243064 0.789231
31 1 0.81202 0.20208 0.713171
32 1 0.695365 0.768938 0.275311
33 1 0.0828277 0.439135 0.266793
34 1 0.926568 0.518228 0.729162
35 1 0.18312 0.55138 0.75171
36 1 0.339562 0.401241 0.271729
37 1 0.9471 0.911056 0.260095
38 1 0.0987737 0.111927 0.769348
39 1 0.32352 0.0885947 0.718903
40 1 0.158492 0.944201 0.279
41 1 0.568057 0.401164 0.249024
42 1 0.439009 0.5823 0.778958
43 1 0.712171 0.59741 0.722499
44 1 0.853699 0.356156 0.22608
45 1 0.413329 0.96475 0.263561
46 1 0.577274 0.0693611 0.752407
47 1 0.829308 0.0304733 0.742056
48 1 0.646553 0.91471 0.223945
49 2 0.121147 0.316753 0.429184
50 2 0.876379 0.643472 0.607179
51 2 0.127402 0.64286 0.890067
52 2 0.367957 0.287515 0.0728604
53 2 0.871529 0.822074 0.116085
54 2 0.108162 0.267018 0.937754
55 2 0.364959 0.180832 0.542765
56 2 0.125096 0.835503 0.439319
57 2 0.629027 0.352397 0.411138
58 2 0.377535 0.638794 0.622119
59 2 0.642084 0.618514 0.87311
60 2 0.872039 0.19741 0.0692234
61 2 0.348997 0.876365 0.10528
62 2 0.632829 0.157929 0.921576
63 2 0.87027 0.123257 0.562592
64 2 0.599681 0.780325 0.368087
65 2 0.0775976 0.338463 0.527136
66 2 0.912811 0.645547 0.499343
67 2 0.161064 0.636447 0.00270574
68 2 0.33691 0.371723 0.994006
69 2 0.905835 0.843811 0.00150678
70 2 0.07863 0.190567 0.0274335
71 2 0.326006 0.134908 0.448201
72 2 0.173895 0.849156 0.526496
73 2 0.605101 0.417307 0.515895
74 2 0.41193 0.615506 0.5105
75 2 0.670997 0.582426 0.989889
76 2 0.853047 0.262875 0.964623
77 2 0.388214 0.89431 0.00272375
78 2 0.592497 0.128813 0.0218628
79 2 0.825942 0.0880384 0.468182
80 2 0.620661 0.838079 0.486031
81 2 0.0345164 0.208488 0.220484
82 2 0.979305 0.734441 0.803476
83 2 0.209428 0.793465 0.724486
84 2 0.242514 0.241921 0.215087
85 2 0.97403 0.668221 0.23951
86 2 0.000123128 0.258437 0.744728
87 2 0.284885 0.321031 0.70985
88 2 0.217357 0.732371 0.225836
89 2 0.519127 0.188278 0.351205
90 2 0.466387 0.823976 0.74808
91 2 0.729463 0.826218 0.818798
92 2 0.753421 0.210734 0.220856
93 2 0.440828 0.719377 0.261184
94 2 0.530774 0.29622 0.773869
95 2 0.791822 0.264999 0.741592
96 2 0.731498 0.741389 0.27805
97 2 0.0936309 0.250499 0.242862
98 2 0.919094 0.70891 0.804144
99 2 0.151074 0.73949 0.732333
100 2 0.294748 0.200419 0.235459
101 2 0.920221 0.725627 0.268567
102 2 0.0599179 0.297289 0.747062
103 2 0.342153 0.2848 0.701312
104 2 0.153825 0.738021 0.234031
105 2 0.575885 0.210969 0.309711
106 2 0.410441 0.772406 0.767412
107 2 0.676318 0.783624 0.767404
108 2 0.8106 0.169269 0.23742
109 2 0.387643 0.76839 0.284245
110 2 0.590327 0.281335 0.754208
111 2 0.84929 0.228419 0.722841
112 2 0.672133 0.717487 0.232368
113 2 0.120362 0.428563 0.240199
114 2 0.890009 0.534606 0.756567
115 2 0.145278 0.551137 0.731638
116 2 0.36573 0.351301 0.297537
117 2 0.910671 0.896787 0.29625
118 2 0.128541 0.153394 0.734945
119 2 0.362145 0.106112 0.738699
120 2 0.122881 0.911399 0.273208
121 2 0.602103 0.375224 0.223801
122 2 0.401303 0.587289 0.811352
123 2 0.675784 0.602712 0.683211
124 2 0.882141 0.312174 0.268443
125 2 0.380025 0.954446 0.305295
126 2 0.612888 0.0793141 0.724393
127 2 0.868391 0.049433 0.761526
128 2 0.620162 0.868747 0.180477
129 2 0.0721614 0.509876 0.236649
130 2 0.931296 0.4421 0.753116
131 2 0.197336 0.487356 0.715876
132 2 0.340422 0.462911 0.323499
133 2 0.96079 0.977567 0.2997
134 2 0.106257 0.0400787 0.737556
135 2 0.311269 0.0270033 0.768082
136 2 0.156476 0.0131588 0.23944
137 2 0.559845 0.454747 0.187193
138 2 0.455552 0.521187 0.822248
139 2 0.735524 0.555074 0.673224
140 2 0.860902 0.428859 0.260684
141 2 0.42999 0.0296669 0.299285
142 2 0.561284 0.00710872 0.711117
143 2 0.81977 0.963551 0.780435
144 2 0.645899 0.980726 0.184719
145 3 0.0816483 0.439547 0.393188
146 3 0.923602 0.522071 0.604648
147 3 0.178368 0.5435 0.874934
148 3 0.359676 0.418793 0.153701
149 3 0.928704 0.926824 0.141621
150 3 0.108911 0.115295 0.889972
151 3 0.319458 0.0606179 0.594934
152 3 0.169127 0.95684 0.401365
153 3 0.580929 0.456196 0.353877
154 3 0.434105 0.549911 0.662172
155 3 0.702605 0.546898 0.832462
156 3 0.870763 0.346574 0.106482
157 3 0.403211 0.98376 0.145765
158 3 0.580648 0.0497302 0.874821
159 3 0.827545 0.00981776 0.620032
160 3 0.624636 0.923626 0.337962
161 3 0.0524806 0.259238 0.38263
162 3 0.947454 0.709126 0.64129
163 3 0.185114 0.743438 0.881323
164 3 0.290838 0.282169 0.09116
165 3 0.93883 0.739784 0.106127
166 3 0.0375863 0.245282 0.900343
167 3 0.300267 0.242032 0.56305
168 3 0.189887 0.76962 0.383599
169 3 0.562745 0.28963 0.451635
170 3 0.438179 0.733932 0.609865
171 3 0.695358 0.722882 0.91815
172 3 0.797639 0.221002 0.0763267
173 3 0.411544 0.792479 0.121795
174 3 0.565995 0.234356 0.912534
175 3 0.802784 0.189798 0.590236
176 3 0.677921 0.775211 0.395894
177 3 0.0524366 0.364671 0.200528
178 3 0.961768 0.585608 0.793761
179 3 0.207498 0.64123 0.702163
180 3 0.290987 0.353657 0.289016
181 3 0.978555 0.826697 0.278816
182 3 0.0503771 0.146415 0.72044
183 3 0.297362 0.174035 0.765909
184 3 0.188368 0.876093 0.210067
185 3 0.530589 0.317857 0.250719
186 3 0.465527 0.679388 0.805371
187 3 0.736613 0.697252 0.722781
188 3 0.80394 0.319389 0.262874
189 3 0.443016 0.873664 0.296408
190 3 0.549638 0.157662 0.712803
191 3 0.80257 0.116391 0.790643
192 3 0.692378 0.860641 0.20559
193 3 0.11993 0.518155 0.440249
194 3 0.876304 0.466619 0.56097
195 3 0.13886 0.462861 0.904259
196 3 0.351808 0.523187 0.109033
197 3 0.895009 0.0164237 0.137018
198 3 0.0892588 0.01492 0.934824
199 3 0.354532 0.973882 0.573799
200 3 0.12805 0.0189827 0.45295
201 3 0.62138 0.540117 0.340292
202 3 0.405721 0.447486 0.656056
203 3 0.671159 0.448247 0.821088
204 3 0.868006 0.447575 0.0474351
205 3 0.37037 0.0724596 0.121004
206 3 0.614321 0.963695 0.906258
207 3 0.868795 0.944246 0.575301
208 3 0.647225 0.0131908 0.404639
209 3 0.996927 0.268597 0.412834
210 3 0.998373 0.701139 0.584431
211 3 0.234683 0.764078 0.940076
212 3 0.248625 0.336194 0.0323386
213 3 0.987822 0.732318 0.0397614
214 3 0.996852 0.181469 0.958383
215 3 0.244629 0.235438 0.534414
216 3 0.244846 0.777188 0.41956
217 3 0.520317 0.310255 0.5325
218 3 0.486121 0.722084 0.542811