LAMMPS data file via write_data, version 15 Apr 2020, timestep = 80000

336 atoms
4 atom types

-1.7798243859124145e+00 2.8143824706312735e+01 xlo xhi
-1.2594068190005432e+00 1.2833407177600474e+01 ylo yhi
-5.9623987624378660e-01 1.1305239510043837e+01 zlo zhi
1.6240565600770305e+00 2.0204280454292740e+00 4.2779816059901166e-01 xy xz yz

Masses

1 12.0107
2 1.00794
3 14.0067
4 15.9994

Atoms # full

1 1 1 -2.3760933554669062e-02 2.7371347686592014e+00 1.9114083177110368e+00 4.8435443760775199e+00 0 0 0
2 1 1 1.7957885318011943e-02 2.6476065436656892e+01 7.2411449147415246e+00 9.2614635045265175e+00 0 0 0
3 1 1 -3.3050663282804399e-03 4.3606275466045759e+00 9.3854809454210084e+00 9.1332464165873581e+00 0 0 0
4 1 1 5.2218779985241708e-02 8.5037703195385674e+00 5.2005410001495038e+00 -2.6630102677789314e-03 0 0 0
5 1 1 2.5450518155677393e-02 2.9123861229213684e+01 1.1209083693177522e+01 2.8486157444199853e+00 0 0 0
6 1 1 -2.3159796665037785e-05 3.5951423023201796e+00 2.1266400060118023e+00 1.0531716887713682e+01 0 0 0
7 1 1 1.8031818617263311e-02 9.2038493206480823e+00 4.8770211199948021e-01 5.2465865437547539e+00 0 0 0
8 1 1 2.2729812978559850e-03 4.6510035036576980e+00 1.1112476766492641e+01 3.5116465937875150e+00 0 0 0
9 1 1 3.2168669846023790e-02 1.8533666301586678e+01 2.0352314681823360e+00 8.6062665467605264e+00 0 0 -1
10 1 1 1.2090653493468120e-02 1.2012148394680462e+01 9.0033704530093637e+00 6.4637594326133572e+00 0 0 0
11 1 1 7.4736671442775793e-03 2.2183083598012445e+01 1.0436938628993172e+01 1.0481007229682486e+00 0 0 1
12 1 1 2.2681690101583593e-02 2.5088098347717203e+01 4.6464300486560477e+00 3.0940093184195305e+00 0 0 0
13 1 1 4.0341591263657502e-02 1.2402970406685172e+01 1.0320900310582616e+01 1.8532038360662808e+00 0 0 0
14 1 1 3.8462857120404759e-02 1.5476020287706211e+01 3.6474194668900033e+00 3.3279944530394077e+00 0 0 0
15 1 1 1.2440897384706530e-02 2.5214892671508803e+01 1.5919696071168348e+00 8.0861384392158229e+00 0 0 0
16 1 1 2.1236681151951049e-02 2.0778960888030376e+01 8.7657823129794785e+00 7.2420125144623793e+00 0 0 0
17 1 1 1.5858712998589656e-02 3.9981696820473278e-01 1.5397256614211976e+00 5.8514583811147141e+00 0 0 0
18 1 1 3.5964233439791965e-02 2.7881068241719298e+01 8.9507944770038215e+00 1.0512140450455757e+01 0 0 0
19 1 1 -5.1485975452954594e-03 6.8059266866832200e+00 9.7220528170435792e+00 8.3603966567338546e+00 0 0 0
20 1 1 2.7401888949956300e-02 9.5204706998798940e+00 2.8782302024869093e+00 5.7768373528508943e-01 0 0 0
21 1 1 -1.6337923064909873e-04 2.7488276951349327e+01 9.3019773321058246e+00 3.1644472033911937e+00 0 0 0
22 1 1 -1.3213362937337705e-02 -6.1124116538585072e-01 2.5216457249672866e+00 -3.9038923233381806e-01 0 0 1
23 1 1 3.0377793105755304e-02 9.1944472638429229e+00 2.6100943341602432e+00 6.6753750530168441e+00 0 0 0
24 1 1 1.0571368798508146e-02 4.6808956714186998e+00 8.8305691614663786e+00 2.4202813357160475e+00 0 0 0
25 1 1 3.5347787731052932e-02 1.6224503127050728e+01 1.0676778661248170e+00 9.4712659577763887e+00 0 0 -1
26 1 1 2.7123951357168545e-02 1.3497097292901151e+01 8.1317168931578010e+00 8.3782925240623030e+00 0 0 0
27 1 1 9.4796905162052719e-04 2.2096866658610050e+01 1.2079719610384394e+01 2.9049179869867432e+00 0 0 1
28 1 1 2.6377215761701357e-02 2.3723296077067580e+01 2.7577745547815802e+00 2.1480698045922271e+00 0 0 0
29 1 1 3.6063943362355515e-02 1.4495113448719655e+01 8.8288091179779364e+00 1.6191015596778562e+00 0 0 0
30 1 1 2.7940008875788853e-02 1.4337183770553562e+01 1.3834963056861849e+00 3.2744384651044829e+00 0 0 0
31 1 1 7.0520450211079111e-02 2.2647082844975142e+01 1.4487348072545645e+00 8.6100638708867621e+00 0 0 0
32 1 1 2.5110093393826055e-02 1.9306408899227822e+01 7.8455969638548231e+00 5.4609789817400971e+00 0 0 0
33 1 1 2.2865083185369742e-03 1.2214915929735093e+00 3.9432761946268764e+00 5.3371649492168727e+00 0 0 0
34 1 1 2.3538751009208013e-02 2.9011728029229069e+01 7.1378559943492652e+00 9.0336766079465143e+00 0 0 0
35 1 1 5.6148705192256738e-03 6.0617296733802153e+00 7.3619707096239688e+00 9.1199548908582457e+00 0 0 0
36 1 1 -5.6115859394417489e-03 7.0416817735844770e+00 3.3912491804572191e+00 1.0349357039521803e+00 0 0 0
37 1 1 2.0595157806774886e-02 2.9173638244572118e+01 9.9265788961355526e+00 5.0046155659014042e+00 0 0 0
38 1 1 1.8607671704834777e-02 1.7680694366835019e+00 4.2211325681480827e-01 1.1146460506933934e+01 0 0 0
39 1 1 2.1284331731083385e-02 8.4818967168534734e+00 3.4692542451677166e-01 7.7183849608632036e+00 0 0 0
40 1 1 3.1701602695688738e-02 6.7255951486179972e+00 1.0187247845488493e+01 2.3224646515329086e+00 0 0 0
41 1 1 -5.2292842150935426e-03 1.6459749741664307e+01 3.5271771979256039e+00 8.8323310998350806e+00 0 0 -1
42 1 1 6.2821636585565083e-03 1.2649774573701180e+01 6.4820703013991174e+00 6.6651024378820880e+00 0 0 0
43 1 1 4.1097447797729447e-02 2.0905453609021251e+01 1.2592280190396782e+01 7.6627346569862675e-01 0 0 1
44 1 1 1.4570755352573565e-02 2.2569372983052261e+01 5.0142917488264658e+00 2.7020161886272032e+00 0 0 0
45 1 1 4.1472347317226967e-02 1.4682669328572878e+01 1.1302866106564071e+01 1.3388721516487714e+00 0 0 0
46 1 1 3.4321419004283565e-02 1.6814240598012447e+01 1.5854972800176079e+00 3.7403327953831429e+00 0 0 0
47 1 1 3.2593741323195410e-02 2.3702270875811351e+01 -2.0716646180122567e-01 6.9629763990508620e+00 0 0 0
48 1 1 1.2562878711949721e-02 1.8753793727137328e+01 1.0038992416056601e+01 6.6574837594977838e+00 0 0 0
49 1 2 1.9696258393384958e-01 2.4127290144574189e+00 1.8199868165050050e+00 3.7981215998953726e+00 0 0 0
50 1 2 1.9152012379588945e-01 2.6397923861213290e+01 6.4173770222282416e+00 1.0030731825545942e+01 0 0 0
51 1 2 1.8272715452985228e-01 3.9276629976997564e+00 9.1864650592185271e+00 8.1042298110538624e+00 0 0 0
52 1 2 1.3059199208298025e-01 8.6279285639434580e+00 5.6986137620100372e+00 1.0060228379633913e+00 0 0 0
53 1 2 1.5148803744457606e-01 2.8327090423233582e+01 1.1882071058384913e+01 3.2870141267164166e+00 0 0 0
54 1 2 1.8149227432615872e-01 3.2184443961376332e+00 2.1480040345125384e+00 9.4924798639062011e+00 0 0 0
55 1 2 1.3508224511196809e-01 1.0192739234239465e+01 1.1594661801050687e-01 5.2626962946167879e+00 0 0 0
56 1 2 1.9094084543767409e-01 4.1369734215883485e+00 1.1610561801456122e+01 2.6182359782438667e+00 0 0 0
57 1 2 1.7203240314968649e-01 1.8525890356816586e+01 1.8223190248941910e+00 7.5581128777749642e+00 0 0 -1
58 1 2 1.6078757371079128e-01 1.1016627159802908e+01 8.9867016381660427e+00 6.9403422111830455e+00 0 0 0
59 1 2 1.8413979794642671e-01 2.1312123856122234e+01 9.9359916984903371e+00 1.4360834455377285e+00 0 0 1
60 1 2 1.5806449383402568e-01 2.5025159537585075e+01 4.2783795808424641e+00 4.1359996989018750e+00 0 0 0
61 1 2 1.3711228795336536e-01 1.2467931061939959e+01 1.0453980993002713e+01 2.9804023307164864e+00 0 0 0
62 1 2 1.4607678015513750e-01 1.5706301797484663e+01 3.7763481661148415e+00 2.2344336787647792e+00 0 0 0
63 1 2 1.6397940604193548e-01 2.5400146390691255e+01 9.8679606394149033e-01 8.9886605833597137e+00 0 0 0
64 1 2 1.4310323220866994e-01 2.0229804863921434e+01 8.2607953092525612e+00 8.0997717039686918e+00 0 0 0
65 1 2 2.5950366959116294e-01 3.7709252305355259e+00 1.5913666093328795e+00 4.9983144927343668e+00 0 0 0
66 1 2 2.0391980574864771e-01 2.5496509145783975e+01 7.1908382801906177e+00 8.6486118556621108e+00 0 0 0
67 1 2 2.1870418183482587e-01 3.5498811699282071e+00 9.8168076635196684e+00 9.6849925159333914e+00 0 0 -1
68 1 2 1.6157805571341599e-01 1.0665019389211126e+01 6.4604586670739099e+00 1.1202055063363730e+01 0 0 0
69 1 2 2.0559522947259701e-01 2.9718504066214933e+01 1.1803778674494708e+01 2.1412316053350726e+00 0 0 1
70 1 2 2.3371014588154423e-01 4.6655978097824962e+00 2.3272111838911966e+00 1.0403560420252731e+01 0 0 -1
71 1 2 2.0555303532777813e-01 8.8841043286820831e+00 1.5027354484491795e-01 4.2019232958745771e+00 0 0 0
72 1 2 2.1737536690756931e-01 4.3814212968279609e+00 1.1693960054003277e+01 4.4152358590177094e+00 0 0 0
73 1 2 1.5295100747694920e-01 1.9609781873553128e+01 1.9502404755989975e+00 8.7751941943896909e+00 0 0 -1
74 1 2 2.0301119448294846e-01 1.1965038004933071e+01 9.8190801579710794e+00 5.7754053082627008e+00 0 0 0
75 1 2 2.0534975574013323e-01 2.2708861050459021e+01 9.6563201239341723e+00 5.1082292135671481e-01 0 0 0
76 1 2 1.9215752225802671e-01 2.6109951119923135e+01 5.0553650530424319e+00 3.0766215556105787e+00 0 0 1
77 1 2 1.7989511213071735e-01 1.1330914572709771e+01 1.0387119933278473e+01 1.6274425220390136e+00 0 0 1
78 1 2 1.7631490916150028e-01 1.5336571625862421e+01 4.6859655168868164e+00 3.6229243443967523e+00 0 0 -1
79 1 2 2.0700798737959342e-01 2.6074393371040141e+01 2.2635989502569389e+00 7.9614324300072132e+00 0 0 0
80 1 2 2.1084216481115889e-01 2.1808551110913783e+01 8.8202574866666126e+00 7.5919843135769325e+00 0 0 0
81 1 2 2.0961885276218689e-01 -2.4835866763599451e-01 9.3288545200600925e-01 6.5455590821226473e+00 1 0 0
82 1 2 1.8482785469043850e-01 2.7905644709407603e+01 1.0027973509125893e+01 1.0858485824398052e+01 -1 0 0
83 1 2 2.0833156382051532e-01 7.6288072339076711e+00 1.0356818525679884e+01 8.4568167164383290e+00 0 0 0
84 1 2 2.2639389698576246e-01 1.0174519064552808e+01 2.0546987213439269e+00 2.7742498095434986e-01 0 0 0
85 1 2 2.1337107785674475e-01 2.7074663778240552e+01 8.4217871487831708e+00 2.6859324545783281e+00 -1 0 0
86 1 2 2.1640314128863436e-01 -9.9310525010892725e-01 3.2210697754615634e+00 3.8734097156009328e-01 1 0 1
87 1 2 2.0095333503772911e-01 8.9629786724184193e+00 3.7195928947516927e+00 6.7067368092694100e+00 0 0 0
88 1 2 2.3397436926774409e-01 4.1997789497356699e+00 7.8513155379211659e+00 2.3732046224759631e+00 0 0 0
89 1 2 1.7568481147115336e-01 1.5650877562767555e+01 2.7847691460889501e-01 1.0005611396064523e+01 0 0 -1
90 1 2 2.2896318653839645e-01 1.4452966462467719e+01 8.3886677011401893e+00 8.9206297290877927e+00 0 0 0
91 1 2 2.3360886005731563e-01 2.2782113026540927e+01 1.2530130350573934e+01 3.6905343854081822e+00 0 0 1
92 1 2 2.1980658022928928e-01 2.3744394990466120e+01 1.8815920652743294e+00 1.4709493156812674e+00 0 0 0
93 1 2 1.7049198221230943e-01 1.4934679594348422e+01 7.8279666705235842e+00 1.2776705003925479e+00 0 0 0
94 1 2 1.5489924568838412e-01 1.3417802494030671e+01 8.1191991386994378e-01 3.5324557448456897e+00 0 0 0
95 1 2 1.3635795717745927e-01 2.1640309695704762e+01 2.0108911809417513e+00 8.8639035650430742e+00 0 0 0
96 1 2 1.8705302317245207e-01 1.9303491524976621e+01 7.2364017326966534e+00 4.5240880613851937e+00 0 0 0
97 1 2 1.7190297048324407e-01 -1.0537990202637992e-01 1.4608505922576844e+00 4.8790723705561252e+00 0 0 0
98 1 2 1.6135518162977752e-01 2.5921196194835979e+01 7.9940616911233962e+00 -3.9380588713474862e-01 0 0 1
99 1 2 1.8363078682584136e-01 6.5164233536198397e+00 9.6042656898655387e+00 7.2904082285509286e+00 0 0 0
100 1 2 1.2805613400726126e-01 9.7712427390277092e+00 3.0814948682510623e+00 1.6388333815131975e+00 0 0 0
101 1 2 1.7535228868758115e-01 2.6572579392841078e+01 9.8263145029769596e+00 3.4337992700489552e+00 0 0 0
102 1 2 1.9668398279854582e-01 9.6055614068310691e-01 3.1820908385468218e+00 1.0584020229291209e+01 0 0 0
103 1 2 1.5387479946404664e-01 1.0261514852155369e+01 2.6352178297164550e+00 6.9854472648358916e+00 0 0 0
104 1 2 1.6145271653008714e-01 4.4717131119151654e+00 9.3086275054557994e+00 1.4348644714197789e+00 0 0 0
105 1 2 1.8584185606586251e-01 1.5993760698855414e+01 7.2126015083953710e-01 8.3392006711605546e+00 0 0 -1
106 1 2 1.4927919230050118e-01 1.2690780197750790e+01 7.9372316647944663e+00 9.1925525019797156e+00 0 0 0
107 1 2 1.8670668485077779e-01 2.1187833020729887e+01 1.1665437673473068e+01 3.3783895122367884e+00 0 0 1
108 1 2 1.7232162262959105e-01 2.3540999282967721e+01 2.3383433902889141e+00 3.1933646129169735e+00 0 0 0
109 1 2 1.3437892472703830e-01 1.4729233858122386e+01 8.7966086254777629e+00 2.6341133974304562e+00 0 0 0
110 1 2 1.4785443162872558e-01 1.4450040224329861e+01 1.3422674464708586e+00 2.1638067121160174e+00 0 0 0
111 1 2 1.3310884173224974e-01 2.2780414272474530e+01 8.4583367912427398e-01 9.5907890656631700e+00 0 0 0
112 1 2 1.6954776469460675e-01 1.8767276463963483e+01 7.2116728981055500e+00 6.2147449222340692e+00 0 0 0
113 1 2 1.8214001272027175e-01 6.5892777608713393e-01 3.9700785603648701e+00 4.3490784717086868e+00 0 0 0
114 1 2 1.5828153064793693e-01 2.9224493204827141e+01 6.3797497906926344e+00 9.8077655842043718e+00 0 0 0
115 1 2 1.7275770892274395e-01 5.8145909122087485e+00 6.8423731920953665e+00 8.1512864065420771e+00 0 0 0
116 1 2 1.9303882748927298e-01 7.1917073745614424e+00 3.7132644088082225e+00 2.0316524893288119e+00 0 0 0
117 1 2 1.8687650582805290e-01 2.8502390357289521e+01 1.0713549559933920e+01 5.5098060582527442e+00 0 0 0
118 1 2 1.5692867667608795e-01 1.3935240225656695e+00 2.1176393493540568e-01 1.0103301641092020e+01 0 0 0
119 1 2 1.6502530322745187e-01 9.4648283852797022e+00 6.7291908941605527e-02 8.1001750329431594e+00 0 0 0
120 1 2 1.4956063752120752e-01 6.4544893453261203e+00 1.0515806404762614e+01 1.3283666996239607e+00 0 0 0
121 1 2 1.7597174156773163e-01 1.6146976194688236e+01 3.3792161822160836e+00 7.8039309941960786e+00 0 0 -1
122 1 2 1.8757090432098317e-01 1.1805907156877756e+01 6.1667677277919015e+00 7.2889844006939404e+00 0 0 0
123 1 2 1.3921175683363557e-01 1.9948186741466085e+01 1.2136679459392717e+01 1.1505944204418752e+00 0 0 1
124 1 2 1.8002818507755391e-01 2.2106768994328327e+01 4.5969648887964283e+00 3.6471753255936710e+00 0 0 0
125 1 2 1.2435829595472037e-01 1.4856548493240261e+01 1.1486119441557676e+01 2.4067869311043872e+00 0 0 0
126 1 2 1.2941444848403033e-01 1.7076784259127113e+01 1.4018822713838488e+00 2.6326172575629436e+00 0 0 0
127 1 2 1.7496613816831938e-01 2.5570884786387214e+01 1.3077412073104966e+01 7.7180976653053017e+00 0 -1 0
128 1 2 1.6815594543252096e-01 1.8138760443216995e+01 9.5415375648341119e+00 7.4221009499300878e+00 0 0 0
129 1 2 2.0994357830734561e-01 1.2652032947925698e+00 4.9453711331634258e+00 5.7245131684550445e+00 0 0 0
130 1 2 1.7020915289726335e-01 2.9874032835006762e+01 7.0078051340725578e+00 8.3715012261861901e+00 0 0 0
131 1 2 2.3310533811760334e-01 6.3799942295209666e+00 6.5338250199716468e+00 9.7739819851013365e+00 0 0 0
132 1 2 2.3657616228650782e-01 6.0196994121554273e+00 2.9452592529787394e+00 1.0179161882949310e+00 0 0 0
133 1 2 2.1237982403352659e-01 2.9775862593562380e+01 9.6183205444760098e+00 5.8755825487559692e+00 0 0 0
134 1 2 1.8829575417045943e-01 -3.7213147245856382e-01 -9.8246678816103605e-01 -3.4039910957376801e-01 0 0 1
135 1 2 2.1162937557899031e-01 7.6772229202984850e+00 -1.4467976744174882e-01 8.3663405455466524e+00 0 0 0
136 1 2 1.8192265111608091e-01 7.8287486520324183e+00 1.0203587598913199e+01 2.3152237032378764e+00 0 0 0
137 1 2 2.0985026447719524e-01 1.6088523392120411e+01 4.5426991606705611e+00 9.1038534655874876e+00 0 0 -1
138 1 2 2.0772510867879534e-01 1.2957077529360038e+01 5.6234837040027337e+00 6.0839371871665477e+00 0 0 0
139 1 2 1.8008207165674370e-01 1.8923093399258168e+01 -6.6707392957190392e-01 5.1073507120385164e-02 0 1 1
140 1 2 2.2143899470209372e-01 2.1789367213458490e+01 5.6926843819430664e+00 2.3189676317339161e+00 0 0 0
141 1 2 1.6767337560140599e-01 1.5189218796395108e+01 1.2142229040301505e+01 8.1592863213127398e-01 0 0 0
142 1 2 1.9485423337530819e-01 1.7625992976110769e+01 1.1614891666306177e+00 4.3464107533083203e+00 0 0 0
143 1 2 1.7300222756867467e-01 2.3600120837676513e+01 -7.8105730241395843e-01 5.9935875715682601e+00 0 0 0
144 1 2 2.0509063934113622e-01 1.8242775470757927e+01 1.0999725593039418e+01 6.5695193971826642e+00 0 0 0
145 1 3 -1.5474395269664462e-01 2.7261024911201561e+00 3.4013970888297669e+00 5.1489332015416203e+00 0 0 0
146 1 3 -1.6030481727633777e-01 2.7653960582966000e+01 6.9056831486631465e+00 8.3217301866970494e+00 0 0 0
147 1 3 -1.5796430311789122e-01 4.7486046191562963e+00 7.9655134779449535e+00 9.7333366962265302e+00 0 0 0
148 1 3 -1.7819581920557478e-01 7.0594106626475979e+00 4.7388852931977308e+00 1.8143759290191630e-01 0 0 0
149 1 3 -1.5562223324728119e-01 3.0048736280565279e+01 1.0691453842693491e+01 4.0035069191141028e+00 0 0 0
150 1 3 -1.6052464324386961e-01 3.3457265137115546e+00 6.5935753440802114e-01 1.0960877701659903e+01 0 0 0
151 1 3 -1.6646738866691738e-01 8.3772257669507884e+00 -2.7725717285471307e-01 6.3212370858213225e+00 0 0 0
152 1 3 -1.6902027332401584e-01 6.1902645899275832e+00 1.1289254754335918e+01 3.3049831627415203e+00 0 0 0
153 1 3 -1.4773511204019607e-01 1.8035146882217454e+01 3.5037904838398140e+00 8.8857685073838226e+00 0 0 -1
154 1 3 -1.7467760062763649e-01 1.2092752024334454e+01 7.6257883715795627e+00 5.7658875234204645e+00 0 0 0
155 1 3 -1.6740445548827221e-01 2.1595312238725064e+01 1.1417746341239351e+01 -1.4217420315414286e-02 0 0 1
156 1 3 -1.5582644106375668e-01 2.3968133227427863e+01 5.7095737032129819e+00 2.9572456785160952e+00 0 0 0
157 1 3 -1.5822490434520270e-01 1.3148726122571096e+01 1.1485239574896202e+01 1.1504084306444089e+00 0 0 0
158 1 3 -1.7650551742444062e-01 1.6822105510716586e+01 3.0704652074671870e+00 3.9583972561776681e+00 0 0 0
159 1 3 -1.8153801601553937e-01 2.5090246732250773e+01 5.6885629386257852e-01 6.9213289703755416e+00 0 0 0
160 1 3 -1.6239941321245219e-01 2.0204885772294311e+01 1.0238825042532977e+01 7.2136807371587643e+00 0 0 0
161 1 3 -1.7204673352610522e-01 1.7549697961295256e+00 8.6960710806933417e-01 5.5858324674270463e+00 0 0 0
162 1 3 -1.8319656927083930e-01 2.6448849520351210e+01 8.6355990868577948e+00 9.9828349668140746e+00 0 0 0
163 1 3 -1.6489803344877363e-01 5.5544583677236128e+00 1.0393303067433472e+01 8.9835014060740299e+00 0 0 0
164 1 3 -1.7593943234844661e-01 9.7174385346371004e+00 4.1844814060011721e+00 -2.1513548986854619e-01 0 0 0
165 1 3 -1.8385090946832974e-01 2.8288635249096522e+01 1.0176145971140560e+01 2.0985228493204375e+00 0 0 0
166 1 3 -1.5316737499158706e-01 8.8483179468227657e-01 2.9113972833732689e+00 -5.8366805981627501e-01 0 0 1
167 1 3 -1.8456272727757439e-01 9.1422301555030447e+00 2.1059395346931455e+00 5.2456233553757858e+00 0 0 0
168 1 3 -1.7159626923766974e-01 3.9406007900626072e+00 9.7142594897238830e+00 3.4493538280333249e+00 0 0 0
169 1 3 -1.7506235392967068e-01 1.7811485469504156e+01 8.3653339952294470e-01 9.3763240019891398e+00 0 0 -1
170 1 3 -1.7473031351832125e-01 1.3109034937715458e+01 9.3847661330729402e+00 7.5006741119565996e+00 0 0 0
171 1 3 -1.6801501833203056e-01 2.2922860434980365e+01 1.0927165915761915e+01 2.3229655920421557e+00 0 0 1
172 1 3 -1.8659904688293816e-01 2.5156624993700866e+01 3.3994203018999798e+00 2.1796904585687633e+00 0 0 0
173 1 3 -1.7917709499255094e-01 1.2897814153495025e+01 8.9033414595407301e+00 1.5575043176937937e+00 0 0 0
174 1 3 -1.8306734588168100e-01 1.4134929822188278e+01 2.9620754285816737e+00 3.5147064456887938e+00 0 0 0
175 1 3 -1.6522134057252807e-01 2.3890235319875259e+01 2.3696401680801089e+00 8.4550381476281196e+00 0 0 0
176 1 3 -1.7977304957073276e-01 2.0726404175357331e+01 7.8158296904715270e+00 6.0030294331589307e+00 0 0 0
177 1 3 -1.8179262779263075e-01 2.7044336266982039e-01 3.0780413123628474e+00 6.2183143039334308e+00 0 0 0
178 1 3 -1.6514655703074280e-01 2.9156445951738579e+01 8.5577191595136846e+00 9.7007181738015511e+00 0 0 0
179 1 3 -1.7257802020226401e-01 7.2582510100354503e+00 8.3488459162981457e+00 8.9280669671171999e+00 0 0 0
180 1 3 -1.7117110198730229e-01 8.0883085740142739e+00 2.2895319275303176e+00 7.4954152000185381e-01 0 0 0
181 1 3 -1.7495516353062193e-01 2.8116114776162501e+01 8.8638238542895458e+00 4.5057024128126315e+00 0 0 0
182 1 3 -1.6806661399478473e-01 -1.1025788601898241e+00 1.0896322646662533e+00 -8.3148635698928608e-03 0 0 1
183 1 3 -1.5747979330317630e-01 8.3736438474036810e+00 1.9023979872897945e+00 7.8493883024622813e+00 0 0 0
184 1 3 -1.7949355765029940e-01 6.2603875111176519e+00 8.7399614984746954e+00 2.3932326691752266e+00 0 0 0
185 1 3 -1.5938827807692452e-01 1.5719603905287961e+01 2.4520887706152612e+00 9.7936519558457640e+00 0 0 -1
186 1 3 -1.7405040436385563e-01 1.3807731648970409e+01 6.8062747743720697e+00 7.6592424279392448e+00 0 0 0
187 1 3 -1.8702996397948099e-01 1.9989262633854697e+01 -8.2246878478349117e-01 1.9540719496695966e+00 0 1 1
188 1 3 -1.6385174609859071e-01 2.2524243797126367e+01 3.6725877709018420e+00 1.8712543698656376e+00 0 0 0
189 1 3 -1.7882322001436171e-01 1.5349143299093939e+01 9.9233565072026018e+00 9.6157850680061263e-01 0 0 0
190 1 3 -1.8796808280655361e-01 1.5521193997997557e+01 6.4242740085416572e-01 3.9578351477630562e+00 0 0 0
191 1 3 -1.8420677329202428e-01 2.2394864324092588e+01 3.8626940853737501e-01 7.4870206085897086e+00 0 0 0
192 1 3 -1.7015551830428327e-01 1.8567689532366153e+01 9.2159693129045444e+00 5.3561954958041538e+00 0 0 0
193 1 3 8.2934165074833283e-02 3.5479943475837787e+00 4.2677806966790657e+00 4.0903388776286880e+00 0 0 0
194 1 3 5.7046552790302907e-02 2.7582005180727627e+01 5.3046831690574896e+00 8.0278257170641254e+00 0 0 0
195 1 3 7.1501968639669483e-02 3.5408012997897549e+00 6.9510383338614661e+00 9.8269237282192137e+00 0 0 0
196 1 3 8.5820417754834621e-02 8.5031736572327734e+00 4.8079875460458554e+00 1.0647251278162841e+01 0 0 -1
197 1 3 7.5060356097121653e-02 1.0118661799125612e+00 1.1817179565840416e+01 4.7634023738516396e+00 1 -1 0
198 1 3 9.6697859742771897e-02 2.1804056412588948e+00 -1.1002992039819515e-01 3.6640549220942886e-01 0 1 1
199 1 3 7.5888773585662622e-02 1.0194351252990250e+01 1.2199266905146999e+01 6.3647452019557811e+00 0 0 0
200 1 3 8.7560370743550262e-02 6.6332759607484988e+00 1.2756697471616199e+01 2.8814059061545896e+00 0 -1 0
201 1 3 6.9057178954631579e-02 1.8674663123249708e+01 4.4210702224895124e+00 7.7395060856104871e+00 0 0 -1
202 1 3 6.8166594808479891e-02 1.0634129077315794e+01 7.2898943965529766e+00 5.1427844392790725e+00 0 0 0
203 1 3 7.0418388826432365e-02 2.2597716212938440e+01 1.1172077629242825e+01 1.0865897960751823e+01 0 0 0
204 1 3 9.7006595345076899e-02 2.4176027273929922e+01 6.7443585162667494e+00 1.7447050120643577e+00 0 0 0
205 1 3 5.8023196991121469e-02 1.2751491410114420e+01 1.2913456920571814e+01 1.7837201273595586e+00 0 -1 0
206 1 3 7.8048401808597873e-02 1.8194186755111915e+01 3.8352619903196761e+00 3.4849339221103870e+00 0 1 0
207 1 3 7.4338168685342376e-02 2.6361114441935811e+01 -3.9969182189460273e-01 6.8772211410989827e+00 0 1 0
208 1 3 9.6628012660050416e-02 2.1050912411742882e+01 1.1205131901181357e+01 6.2976429378552554e+00 0 -1 0
209 1 3 7.7907348248023950e-02 2.4224240328386042e+00 3.1654063538277777e-01 6.9156660505763234e+00 0 0 0
210 1 3 9.3981694620229053e-02 2.5975084296692440e+01 9.7382455674036130e+00 8.9513811833135364e+00 0 0 0
211 1 3 8.5950273583426773e-02 5.9286229149382299e+00 1.0929449769644229e+01 1.0457402901972031e+01 0 0 -1
212 1 3 1.0274323899506516e-01 1.1964095544583364e+01 4.2765764349315880e+00 1.0121562311106828e+01 0 0 0
213 1 3 9.0958814253084067e-02 2.9202905031690545e+01 9.2669341777682384e+00 1.1403651294395660e+00 0 0 1
214 1 3 9.7822192086528134e-02 1.6443829330727688e+00 3.0673386624467511e+00 7.8475805566487100e-01 0 0 0
215 1 3 8.6961904655948441e-02 7.6899113184497407e+00 2.5195158531082313e+00 4.6512066950038937e+00 0 0 0
216 1 3 9.7932757010835481e-02 3.9887041848625806e+00 9.0440535020515327e+00 4.9043226828689654e+00 0 0 0
217 1 3 8.0208071167939918e-02 1.8310691904516460e+01 8.8226219526877170e-01 1.0877516732950333e+01 0 0 -1
218 1 3 9.3886107940485672e-02 1.4394213359922919e+01 9.8628304702571903e+00 6.6726753285891913e+00 0 0 0
219 1 3 8.8163101634286534e-02 2.4460014019699287e+01 1.1352400144330595e+01 1.9943363847521067e+00 0 0 0
220 1 3 8.5691083351858488e-02 2.5731389506962604e+01 3.6229252257891567e+00 6.6849226192866262e-01 0 0 1
221 1 3 8.8018895505160538e-02 1.2478898898004511e+01 8.2839164489373971e+00 1.2865014727535096e-01 0 0 1
222 1 3 7.9431321794695475e-02 1.3572825347532698e+01 3.0947483953270760e+00 4.9824969705308204e+00 0 0 -1
223 1 3 9.7787737526236734e-02 2.3564985961599774e+01 3.4605297671229058e+00 7.2971470863253485e+00 0 0 0
224 1 3 1.0362901098128612e-01 2.1846298668125861e+01 8.1626736682031833e+00 4.8624041575494230e+00 0 0 0
225 1 3 7.9036269729352543e-02 6.5911141526245931e-01 3.2568501664582596e+00 7.7515275849789704e+00 1 0 0
226 1 3 7.4816281941975357e-02 2.9484974902573860e+01 9.7872177201292914e+00 8.7395383833652645e+00 -1 0 0
227 1 3 7.5777273867481704e-02 7.9238302135531162e+00 8.6334425511119015e+00 1.0393933819489821e+01 0 0 0
228 1 3 1.0095205731798072e-01 7.5853488269814688e+00 1.4474311913657480e+00 -5.5233021905468105e-01 0 0 0
229 1 3 9.8087638195077403e-02 2.8820864059752438e+01 7.4425352666700091e+00 4.2621676080955107e+00 -1 0 0
230 1 3 8.9160733257220876e-02 -1.0416468123303317e+00 8.2724269848533094e-01 1.5691089678344103e+00 1 0 1
231 1 3 9.2520015193867933e-02 6.8731436101182179e+00 2.3552075824112757e+00 7.4896991750879147e+00 0 0 0
232 1 3 9.0900327258794794e-02 6.6909031937973316e+00 8.1276570753843700e+00 3.8188328561731071e+00 0 0 0
233 1 3 9.3385178183260198e-02 1.3602441239604509e+01 2.5434335358053413e+00 -5.8160263514768507e-01 0 0 0
234 1 3 9.3341603853145577e-02 1.5171452952715702e+01 7.0032456829675676e+00 6.7929357697032273e+00 0 0 0
235 1 3 1.0066998047261634e-01 2.1255888339136050e+01 5.7978912719008679e-02 1.5889741831124398e+00 0 1 1
236 1 3 9.3224705874289215e-02 2.2167137720790315e+01 3.9089368047635764e+00 2.9912774561257538e-01 0 0 0
237 1 3 9.2113558381162419e-02 1.7167286642788351e+01 1.0236543466418919e+01 1.1268176675447073e+01 0 0 -1
238 1 3 9.2963810202744412e-02 1.5177633806209583e+01 4.7706392056000158e-01 5.5000434517028820e+00 0 0 0
239 1 3 8.3690361686884443e-02 2.1552394314600178e+01 9.3425419670793985e-01 6.2039401037690842e+00 0 0 0
240 1 3 8.5579651176710167e-02 1.9040159804067795e+01 9.9377868037924131e+00 3.9727125199889803e+00 0 0 0
241 1 4 -1.1511616071917324e-01 3.0337058453939520e+00 5.3816934108845365e+00 3.6040048882049076e+00 0 0 0
242 1 4 -1.3168431457589863e-01 2.7385823907939933e+01 4.9877754824996909e+00 6.7732947204121228e+00 0 0 0
243 1 4 -1.3069007254300408e-01 3.7467602702625227e+00 5.6922009548206489e+00 9.9308364490772938e+00 0 0 0
244 1 4 -1.4318467943926183e-01 7.2472951543476665e+00 4.5030486420382312e+00 1.0503909097744067e+01 0 0 -1
245 1 4 -1.5369793464123266e-01 2.9019072492827284e+01 -1.0563986415323079e+00 4.6174249222168458e+00 0 0 0
246 1 4 -1.0974471790819981e-01 3.4960485737847975e+00 -1.0513569370761200e-02 2.6994524441119694e-01 0 1 1
247 1 4 -1.8203025744722323e-01 9.8563684177291915e+00 1.1551128947985895e+01 7.4247560650413638e+00 0 0 0
248 1 4 -1.2828494551092018e-01 7.7349753564495805e+00 1.2870008119849860e+01 2.2382239150368499e+00 0 -1 0
249 1 4 -1.5595768776297828e-01 1.8768994629516470e+01 5.7085320959197148e+00 7.9299342540699636e+00 0 0 -1
250 1 4 -1.5134674016299760e-01 9.8776650169380318e+00 6.5097785814915436e+00 5.8287175984644977e+00 0 0 0
251 1 4 -1.4239835026490702e-01 2.2482053411222882e+01 9.8963500844053698e+00 1.0774476791839888e+01 0 0 0
252 1 4 -1.7103909876009227e-01 2.3178667487736387e+01 7.0993013994768797e+00 1.0336383648906546e+00 0 0 0
253 1 4 -1.4615981139801101e-01 1.0994943102762807e+01 -2.3236897779970866e-01 9.3206058675052761e-01 0 0 0
254 1 4 -1.5810941573939985e-01 1.8068850050481828e+01 4.9555550155753894e+00 2.9228587609233538e+00 0 1 0
255 1 4 -1.7238421974925361e-01 2.7896373662300679e+01 1.2635268998941743e+01 6.1403991299006826e+00 0 0 0
256 1 4 -1.3191614396203330e-01 2.2338409511445690e+01 1.1126868251285316e+01 6.2745516043240164e+00 0 -1 0
257 1 4 -1.1970801603727810e-01 4.7326662828036410e+00 3.9093984782441860e+00 3.8646423652160449e+00 0 0 0
258 1 4 -1.5213835214713675e-01 2.7356473893480995e+01 4.4819651484536935e+00 8.9281086130268257e+00 0 0 0
259 1 4 -1.4118395867870323e-01 2.2998536046998312e+00 7.3736784684642158e+00 9.9896328417928011e+00 0 0 0
260 1 4 -1.4258400681719585e-01 9.3201580748212578e+00 4.7588838263910231e+00 9.6792418450988862e+00 0 0 -1
261 1 4 -1.3127824783421591e-01 1.8777060312211304e+00 1.1354457406698302e+01 5.6104519089657545e+00 1 -1 0
262 1 4 -1.6437873335455144e-01 1.6651615714373973e+00 -9.3866390378528419e-01 1.2150334646214962e+00 0 1 1
263 1 4 -1.8506788142392686e-01 1.0750370848989771e+01 1.1634621661041734e+01 5.3802145688966556e+00 0 0 0
264 1 4 -1.4814430284126670e-01 4.2140283600030486e+00 -3.4021647271014599e-01 3.1579714956961520e+00 0 0 0
265 1 4 -1.5022346038800111e-01 1.9251299007438334e+01 3.8395433890590249e+00 6.7558538265988393e+00 0 0 -1
266 1 4 -1.3833775623691510e-01 1.0284737442190515e+01 7.8407438877505848e+00 4.0576223154725604e+00 0 0 0
267 1 4 -1.3509074953724273e-01 2.1746111262482096e+01 1.1955579224924136e+01 1.0245540706808526e+01 0 0 0
268 1 4 -1.9551183070120465e-01 2.5283605722051227e+01 7.4280354029097699e+00 1.7422596761063152e+00 0 0 0
269 1 4 -1.9154979613790063e-01 1.2137342794077334e+01 1.2929091616172496e+01 2.9195160347590723e+00 0 -1 0
270 1 4 -1.3490593313996035e-01 1.9305420561488752e+01 3.1922910142233540e+00 3.4579785806606020e+00 0 1 0
271 1 4 -1.4588873061090546e-01 2.7386018244840081e+01 -2.0051599579262414e-01 7.6613609068427868e+00 0 1 0
272 1 4 -1.5928853529599019e-01 2.0497985667201458e+01 1.2192356531612024e+01 5.6587935223198027e+00 0 -1 0
273 1 4 -1.4881407350319867e-01 3.4811443925968768e+00 9.0460181034192688e-01 7.3834016823822086e+00 1 0 0
274 1 4 -1.3840766235202207e-01 2.5694661273401174e+01 9.3905509499844833e+00 7.7289569603230257e+00 -1 0 0
275 1 4 -1.5034150922058520e-01 4.9239056762873545e+00 1.1365636363542638e+01 1.1161133332576579e+01 0 0 -1
276 1 4 -1.3250410760700315e-01 1.2237865738557566e+01 3.0438968193592038e+00 9.8253119867743202e+00 0 0 0
277 1 4 -1.3866402745544054e-01 3.3693788133602065e-01 9.7420286242251848e+00 6.1189279492204163e-01 0 0 1
278 1 4 -1.4328139483959218e-01 1.1031818649951517e+00 3.6775543668883817e+00 1.8317099344487349e+00 1 0 0