ITEM: TIMESTEP
0
ITEM: NUMBER OF ATOMS
576
ITEM: BOX BOUNDS xy xz yz pp pp pp
-3.8734541101000000e+00 1.7704000473000001e+01 0.0000000000000000e+00
0.0000000000000000e+00 2.5111999511699999e+01 -3.8734541101000000e+00
0.0000000000000000e+00 1.2813326682700000e+01 0.0000000000000000e+00
ITEM: ATOMS id type xs ys zs
1 1 0.222346 0.31671 0.86756
2 1 0.777655 0.683289 0.13244
3 1 0.027653 0.566709 0.632439
4 1 0.472345 0.933289 0.36756
5 1 0.222346 0.81671 0.86756
6 1 0.777656 0.183289 0.13244
7 1 0.0276528 0.0667094 0.632439
8 1 0.472345 0.43329 0.36756
9 1 0.722345 0.316711 0.86756
10 1 0.277655 0.683289 0.13244
11 1 0.527655 0.566711 0.63244
12 1 0.972344 0.933289 0.367559
13 1 0.722345 0.816711 0.86756
14 1 0.277656 0.183289 0.13244
15 1 0.527656 0.0667109 0.63244
16 1 0.972344 0.433289 0.36756
17 1 0.157115 0.316823 0.683877
18 1 0.842885 0.683177 0.316124
19 1 0.0928849 0.566823 0.816123
20 1 0.407115 0.933177 0.183877
21 1 0.157115 0.816823 0.683877
22 1 0.842885 0.183177 0.316124
23 1 0.0928849 0.0668226 0.816123
24 1 0.407115 0.433177 0.183876
25 1 0.657115 0.316823 0.683876
26 1 0.342885 0.683177 0.316123
27 1 0.592885 0.566823 0.816124
28 1 0.907115 0.933177 0.183877
29 1 0.657115 0.816823 0.683876
30 1 0.342885 0.183177 0.316124
31 1 0.592885 0.0668226 0.816123
32 1 0.907115 0.433177 0.183876
33 1 0.275082 0.256573 0.692858
34 1 0.724918 0.743427 0.307142
35 1 0.974918 0.506574 0.807141
36 1 0.525082 0.993427 0.192858
37 1 0.275082 0.756573 0.692858
38 1 0.724918 0.243427 0.307142
39 1 0.974918 0.00657366 0.807141
40 1 0.525082 0.493427 0.192858
41 1 0.775082 0.256573 0.692858
42 1 0.224918 0.743427 0.307142
43 1 0.474918 0.506573 0.807142
44 1 0.0250817 0.993427 0.192858
45 1 0.775082 0.756573 0.692858
46 1 0.224918 0.243427 0.307142
47 1 0.474918 0.00657338 0.807142
48 1 0.0250817 0.493427 0.192858
49 1 0.296568 0.279015 0.874434
50 1 0.703432 0.720985 0.125565
51 1 0.953433 0.529015 0.625568
52 1 0.546568 0.970985 0.374435
53 1 0.296568 0.779015 0.874434
54 1 0.703432 0.220985 0.125564
55 1 0.953433 0.0290154 0.625568
56 1 0.546568 0.470985 0.374435
57 1 0.796568 0.279015 0.874435
58 1 0.203432 0.720985 0.125565
59 1 0.453432 0.529015 0.625565
60 1 0.0465678 0.970985 0.374436
61 1 0.796568 0.779015 0.874435
62 1 0.203432 0.220985 0.125564
63 1 0.453432 0.0290149 0.625564
64 1 0.0465679 0.470985 0.374436
65 1 0.33305 0.309311 0.72146
66 1 0.66695 0.690689 0.278541
67 1 0.91695 0.559311 0.77854
68 1 0.58305 0.940689 0.221459
69 1 0.33305 0.809311 0.72146
70 1 0.66695 0.190689 0.278541
71 1 0.91695 0.0593106 0.77854
72 1 0.58305 0.440689 0.22146
73 1 0.83305 0.309311 0.721459
74 1 0.16695 0.690689 0.278541
75 1 0.41695 0.559311 0.778541
76 1 0.0830501 0.940689 0.221459
77 1 0.83305 0.809311 0.721459
78 1 0.16695 0.190689 0.278541
79 1 0.41695 0.0593108 0.778541
80 1 0.08305 0.440689 0.221459
81 1 0.216118 0.36772 0.713481
82 1 0.783882 0.63228 0.286519
83 1 0.0338815 0.61772 0.786519
84 1 0.466118 0.88228 0.213481
85 1 0.216118 0.86772 0.713481
86 1 0.783882 0.13228 0.286519
87 1 0.0338815 0.11772 0.786519
88 1 0.466118 0.38228 0.213481
89 1 0.716118 0.36772 0.713481
90 1 0.283882 0.63228 0.286519
91 1 0.533882 0.61772 0.786519
92 1 0.966118 0.88228 0.213481
93 1 0.716118 0.86772 0.713481
94 1 0.283882 0.13228 0.286519
95 1 0.533882 0.11772 0.786519
96 1 0.966118 0.38228 0.213481
97 2 0.208759 0.320743 0.943252
98 2 0.791241 0.679256 0.0567483
99 2 0.0412406 0.570743 0.556748
100 2 0.458759 0.929256 0.443252
101 2 0.208759 0.820744 0.943252
102 2 0.791241 0.179256 0.0567483
103 2 0.0412406 0.0707434 0.556748
104 2 0.458759 0.429256 0.443252
105 2 0.708759 0.320744 0.943252
106 2 0.291241 0.679256 0.0567483
107 2 0.541241 0.570744 0.556748
108 2 0.958759 0.929256 0.443252
109 2 0.708759 0.820744 0.943252
110 2 0.291241 0.179256 0.0567483
111 2 0.541241 0.0707436 0.556748
112 2 0.958759 0.429256 0.443252
113 2 0.0983126 0.32779 0.629905
114 2 0.901687 0.67221 0.370095
115 2 0.151687 0.57779 0.870095
116 2 0.348313 0.92221 0.129905
117 2 0.0983126 0.82779 0.629905
118 2 0.901687 0.17221 0.370095
119 2 0.151687 0.0777903 0.870095
120 2 0.348313 0.42221 0.129905
121 2 0.598313 0.32779 0.629905
122 2 0.401687 0.67221 0.370095
123 2 0.651687 0.57779 0.870095
124 2 0.848313 0.92221 0.129905
125 2 0.598313 0.82779 0.629905
126 2 0.401687 0.17221 0.370095
127 2 0.651687 0.0777904 0.870095
128 2 0.848313 0.42221 0.129905
129 2 0.2949 0.226899 0.643679
130 2 0.7051 0.773101 0.356321
131 2 0.9551 0.476899 0.856321
132 2 0.5449 0.0231009 0.143679
133 2 0.2949 0.726899 0.643679
134 2 0.7051 0.273101 0.356321
135 2 0.9551 0.976899 0.856321
136 2 0.5449 0.523101 0.143679
137 2 0.7949 0.226899 0.643679
138 2 0.2051 0.773101 0.356321
139 2 0.4551 0.476899 0.856321
140 2 0.0448998 0.0231009 0.143679
141 2 0.7949 0.726899 0.643679
142 2 0.2051 0.273101 0.356321
143 2 0.4551 0.976899 0.856321
144 2 0.0448998 0.523101 0.143679
145 2 0.320186 0.264302 0.956128
146 2 0.679814 0.735698 0.043871
147 2 0.929814 0.514303 0.543872
148 2 0.570186 0.985698 0.456129
149 2 0.320186 0.764302 0.956128
150 2 0.679814 0.235698 0.0438709
151 2 0.929814 0.0143026 0.543872
152 2 0.570186 0.485698 0.456129
153 2 0.820186 0.264302 0.956129
154 2 0.179814 0.735698 0.0438709
155 2 0.429814 0.514302 0.543871
156 2 0.0701863 0.985698 0.456129
157 2 0.820186 0.764302 0.956129
158 2 0.179814 0.235698 0.0438708
159 2 0.429814 0.0143023 0.543871
160 2 0.0701864 0.485698 0.456129
161 2 0.385052 0.30735 0.690375
162 2 0.614948 0.69265 0.309625
163 2 0.864948 0.55735 0.809625
164 2 0.635052 0.94265 0.190375
165 2 0.385052 0.80735 0.690375
166 2 0.614948 0.19265 0.309625
167 2 0.864948 0.0573502 0.809625
168 2 0.635052 0.44265 0.190375
169 2 0.885052 0.30735 0.690375
170 2 0.114948 0.69265 0.309625
171 2 0.364948 0.55735 0.809625
172 2 0.135052 0.94265 0.190375
173 2 0.885052 0.80735 0.690375
174 2 0.114948 0.19265 0.309625
175 2 0.364948 0.0573502 0.809625
176 2 0.135052 0.44265 0.190375
177 2 0.187846 0.405737 0.679353
178 2 0.812154 0.594263 0.320647
179 2 0.0621538 0.655737 0.820647
180 2 0.437846 0.844263 0.179353
181 2 0.187846 0.905737 0.679353
182 2 0.812154 0.0942628 0.320647
183 2 0.0621538 0.155737 0.820647
184 2 0.437846 0.344263 0.179353
185 2 0.687846 0.405737 0.679353
186 2 0.312154 0.594263 0.320647
187 2 0.562154 0.655737 0.820647
188 2 0.937846 0.844263 0.179353
189 2 0.687846 0.905737 0.679353
190 2 0.312154 0.0942629 0.320647
191 2 0.562154 0.155737 0.820647
192 2 0.937846 0.344263 0.179353
193 3 0.151591 0.295409 0.786815
194 3 0.848409 0.704591 0.213184
195 3 0.0984093 0.545408 0.713185
196 3 0.401591 0.954591 0.286815
197 3 0.151591 0.795409 0.786815
198 3 0.848409 0.204591 0.213184
199 3 0.0984094 0.0454084 0.713185
200 3 0.401591 0.454591 0.286816
201 3 0.651591 0.295409 0.786816
202 3 0.348409 0.704591 0.213184
203 3 0.598409 0.545409 0.713184
204 3 0.901591 0.954591 0.286816
205 3 0.651591 0.795409 0.786816
206 3 0.348409 0.204591 0.213184
207 3 0.598409 0.0454086 0.713184
208 3 0.901591 0.454591 0.286816
209 3 0.0723448 0.304535 0.80575
210 3 0.927655 0.695465 0.19425
211 3 0.177655 0.554535 0.69425
212 3 0.322345 0.945465 0.30575
213 3 0.0723447 0.804535 0.80575
214 3 0.927655 0.195465 0.19425
215 3 0.177655 0.0545352 0.69425
216 3 0.322345 0.445465 0.30575
217 3 0.572345 0.304535 0.80575
218 3 0.427655 0.695465 0.19425
219 3 0.677655 0.554535 0.69425
220 3 0.822345 0.945465 0.30575
221 3 0.572345 0.804535 0.80575
222 3 0.427655 0.195465 0.19425
223 3 0.677655 0.0545352 0.69425
224 3 0.822344 0.445465 0.30575
225 3 0.19576 0.275661 0.635245
226 3 0.80424 0.724339 0.364755
227 3 0.0542401 0.525661 0.864755
228 3 0.44576 0.974339 0.135245
229 3 0.19576 0.775661 0.635245
230 3 0.80424 0.224339 0.364755
231 3 0.0542401 0.025661 0.864755
232 3 0.44576 0.474339 0.135245
233 3 0.69576 0.275661 0.635245
234 3 0.30424 0.724339 0.364755
235 3 0.55424 0.525661 0.864755
236 3 0.94576 0.974339 0.135245
237 3 0.69576 0.775661 0.635245
238 3 0.30424 0.224339 0.364755
239 3 0.55424 0.0256611 0.864755
240 3 0.94576 0.474339 0.135245
241 3 0.151039 0.252026 0.531288
242 3 0.848961 0.747974 0.468712
243 3 0.0989608 0.502026 0.968712
244 3 0.401039 0.997974 0.0312881
245 3 0.151039 0.752026 0.531288
246 3 0.848961 0.247974 0.468712
247 3 0.0989608 0.00202597 0.968712
248 3 0.401039 0.497974 0.031288
249 3 0.651039 0.252026 0.531288
250 3 0.348961 0.747974 0.468712
251 3 0.598961 0.502026 0.968712
252 3 0.901039 0.997974 0.0312881
253 3 0.651039 0.752026 0.531288
254 3 0.348961 0.247974 0.468712
255 3 0.598961 0.00202597 0.968712
256 3 0.901039 0.497974 0.031288
257 3 0.282985 0.233463 0.797367
258 3 0.717014 0.766537 0.202634
259 3 0.967015 0.483464 0.702632
260 3 0.532985 0.0165373 0.297367
261 3 0.282985 0.733463 0.797367
262 3 0.717014 0.266537 0.202634
263 3 0.967015 0.983464 0.702632
264 3 0.532985 0.516537 0.297367
265 3 0.782985 0.233463 0.797367
266 3 0.217014 0.766537 0.202634
267 3 0.467014 0.483463 0.702633
268 3 0.0329856 0.0165376 0.297366
269 3 0.782986 0.733463 0.797366
270 3 0.217014 0.266538 0.202634
271 3 0.467014 0.983463 0.702634
272 3 0.0329857 0.516538 0.297366
273 3 0.219924 0.19463 0.804359
274 3 0.780076 0.80537 0.195641
275 3 0.0300754 0.44463 0.695641
276 3 0.469924 0.0553698 0.304359
277 3 0.219924 0.69463 0.804359
278 3 0.780076 0.30537 0.195641
279 3 0.0300754 0.94463 0.695641
280 3 0.469924 0.55537 0.304359
281 3 0.719924 0.19463 0.804359
282 3 0.280076 0.80537 0.195641
283 3 0.530076 0.44463 0.695641
284 3 0.969924 0.0553699 0.304359
285 3 0.719924 0.69463 0.804359
286 3 0.280076 0.30537 0.195641
287 3 0.530076 0.94463 0.695641
288 3 0.969924 0.55537 0.304359
289 3 0.359804 0.305832 0.836956
290 3 0.640196 0.694168 0.163045
291 3 0.890197 0.555832 0.663044
292 3 0.609804 0.944168 0.336955
293 3 0.359804 0.805832 0.836956
294 3 0.640196 0.194168 0.163045
295 3 0.890197 0.0558318 0.663044
296 3 0.609804 0.444168 0.336955
297 3 0.859804 0.305832 0.836955
298 3 0.140196 0.694168 0.163045
299 3 0.390196 0.555832 0.663045
300 3 0.109805 0.944168 0.336955
301 3 0.859804 0.805832 0.836955
302 3 0.140195 0.194168 0.163045
303 3 0.390196 0.0558318 0.663045
304 3 0.109805 0.444168 0.336955
305 3 0.397989 0.353493 0.899472
306 3 0.602011 0.646507 0.100528
307 3 0.852011 0.603493 0.600528
308 3 0.647989 0.896507 0.399472
309 3 0.397989 0.853493 0.899472
310 3 0.602011 0.146507 0.100528
311 3 0.852011 0.103493 0.600528
312 3 0.647989 0.396507 0.399472
313 3 0.897989 0.353493 0.899472
314 3 0.102011 0.646507 0.100528
315 3 0.352011 0.603493 0.600528
316 3 0.147989 0.896507 0.399472
317 3 0.897989 0.853493 0.899472
318 3 0.102011 0.146507 0.100528
319 3 0.352011 0.103493 0.600528
320 3 0.147989 0.396507 0.399473
321 3 0.283999 0.355291 0.672157
322 3 0.716 0.644709 0.327843
323 3 0.966 0.605291 0.827843
324 3 0.533999 0.894709 0.172157
325 3 0.283999 0.855291 0.672157
326 3 0.716 0.144709 0.327843
327 3 0.966 0.105291 0.827843
328 3 0.534 0.394709 0.172157
329 3 0.784 0.355291 0.672157
330 3 0.216 0.644709 0.327843
331 3 0.466 0.605291 0.827843
332 3 0.0339994 0.894709 0.172157
333 3 0.784 0.855291 0.672157
334 3 0.216 0.144709 0.327843
335 3 0.466 0.105291 0.827843
336 3 0.0339996 0.394709 0.172157
337 3 0.327539 0.402791 0.646045
338 3 0.672461 0.597209 0.353955
339 3 0.922461 0.652791 0.853955
340 3 0.577539 0.847209 0.146045
341 3 0.327539 0.902791 0.646045
342 3 0.672461 0.0972089 0.353955
343 3 0.922461 0.152791 0.853955
344 3 0.577539 0.347209 0.146045
345 3 0.827539 0.402791 0.646045
346 3 0.172461 0.597209 0.353955
347 3 0.422461 0.652791 0.853955
348 3 0.0775391 0.847209 0.146045
349 3 0.827539 0.902791 0.646045
350 3 0.172461 0.0972089 0.353955
351 3 0.422461 0.152791 0.853955
352 3 0.0775392 0.347209 0.146045
353 3 0.241 0.370298 0.831141
354 3 0.759 0.629702 0.168858
355 3 0.00899949 0.620298 0.668859
356 3 0.491 0.879702 0.331141
357 3 0.241 0.870298 0.831141
358 3 0.759 0.129702 0.168858
359 3 0.00899948 0.120298 0.668859
360 3 0.491 0.379702 0.331141
361 3 0.741 0.370298 0.831141
362 3 0.259 0.629702 0.168859
363 3 0.509 0.620298 0.668858
364 3 0.991 0.879702 0.331141
365 3 0.741 0.870298 0.831142
366 3 0.259 0.129702 0.168858
367 3 0.509 0.120298 0.668859
368 3 0.991 0.379702 0.331142
369 3 0.207034 0.417346 0.874127
370 3 0.792966 0.582653 0.125873
371 3 0.042966 0.667346 0.625873
372 3 0.457034 0.832654 0.374127
373 3 0.207034 0.917346 0.874127
374 3 0.792966 0.0826535 0.125873
375 3 0.0429659 0.167346 0.625873
376 3 0.457034 0.332654 0.374127
377 3 0.707034 0.417347 0.874127
378 3 0.292966 0.582653 0.125873
379 3 0.542966 0.667347 0.625873
380 3 0.957034 0.832653 0.374127
381 3 0.707034 0.917347 0.874127
382 3 0.292966 0.0826535 0.125873
383 3 0.542966 0.167347 0.625873
384 3 0.957034 0.332653 0.374127
385 4 0.0102254 0.308776 0.72711
386 4 0.989775 0.691224 0.27289
387 4 0.239775 0.558776 0.77289
388 4 0.260225 0.941224 0.22711
389 4 0.0102254 0.808776 0.72711
390 4 0.989775 0.191224 0.27289
391 4 0.239775 0.0587764 0.77289
392 4 0.260225 0.441224 0.22711
393 4 0.510225 0.308776 0.72711
394 4 0.489775 0.691224 0.27289
395 4 0.739775 0.558776 0.77289
396 4 0.760225 0.941224 0.22711
397 4 0.510225 0.808776 0.72711
398 4 0.489775 0.191224 0.27289
399 4 0.739775 0.0587764 0.77289
400 4 0.760225 0.441224 0.22711
401 4 0.0662421 0.298641 0.898748
402 4 0.933758 0.701359 0.101252
403 4 0.183758 0.548641 0.601252
404 4 0.316242 0.951359 0.398748
405 4 0.0662421 0.798641 0.898748
406 4 0.933758 0.201359 0.101252
407 4 0.183758 0.0486405 0.601252
408 4 0.316242 0.451359 0.398748
409 4 0.566242 0.298641 0.898748
410 4 0.433758 0.701359 0.101252
411 4 0.683758 0.548641 0.601252
412 4 0.816242 0.951359 0.398748
413 4 0.566242 0.798641 0.898748
414 4 0.433758 0.201359 0.101252
415 4 0.683758 0.0486406 0.601252
416 4 0.816242 0.451359 0.398748
417 4 0.183431 0.214262 0.492641
418 4 0.816569 0.785738 0.507359
419 4 0.0665686 0.464262 0.00735931
420 4 0.433431 0.0357383 0.992641
421 4 0.183431 0.714262 0.492641
422 4 0.816569 0.285738 0.507359
423 4 0.0665687 0.964262 0.00735932
424 4 0.433431 0.535738 0.992641
425 4 0.683431 0.214262 0.492641
426 4 0.316569 0.785738 0.507359
427 4 0.566569 0.464262 0.0073593
428 4 0.933431 0.0357383 0.992641
429 4 0.683431 0.714262 0.492641
430 4 0.316569 0.285738 0.507359
431 4 0.566569 0.964262 0.00735928
432 4 0.933431 0.535738 0.992641
433 4 0.088523 0.275634 0.474845
434 4 0.911477 0.724366 0.525155
435 4 0.161477 0.525634 0.0251551
436 4 0.338523 0.974366 0.974845
437 4 0.088523 0.775634 0.474845
438 4 0.911477 0.224366 0.525155
439 4 0.161477 0.0256343 0.0251551
440 4 0.338523 0.474366 0.974845
441 4 0.588523 0.275634 0.474845
442 4 0.411477 0.724366 0.525155
443 4 0.661477 0.525634 0.0251551
444 4 0.838523 0.974366 0.974845
445 4 0.588523 0.775634 0.474845
446 4 0.411477 0.224366 0.525155
447 4 0.661477 0.0256343 0.0251551
448 4 0.838523 0.474366 0.974845
449 4 0.190565 0.162377 0.72759
450 4 0.809436 0.837623 0.27241
451 4 0.0594351 0.412377 0.772409
452 4 0.440565 0.0876233 0.22759
453 4 0.190565 0.662377 0.72759
454 4 0.809436 0.337623 0.27241
455 4 0.059435 0.912377 0.772409
456 4 0.440565 0.587623 0.22759
457 4 0.690565 0.162377 0.72759
458 4 0.309436 0.837623 0.27241
459 4 0.559436 0.412377 0.77241
460 4 0.940564 0.0876234 0.22759
461 4 0.690564 0.662377 0.72759
462 4 0.309436 0.337623 0.27241
463 4 0.559436 0.912377 0.77241
464 4 0.940564 0.587623 0.22759
465 4 0.202932 0.189998 0.891624
466 4 0.797069 0.810002 0.108376
467 4 0.0470683 0.439998 0.608377
468 4 0.452931 0.0600024 0.391624
469 4 0.202932 0.689998 0.891624
470 4 0.797069 0.310002 0.108376
471 4 0.0470684 0.939998 0.608377
472 4 0.452932 0.560002 0.391624
473 4 0.702931 0.189998 0.891624
474 4 0.297069 0.810002 0.108376
475 4 0.547069 0.439998 0.608376
476 4 0.952931 0.0600025 0.391624
477 4 0.702931 0.689998 0.891624
478 4 0.297069 0.310002 0.108376
479 4 0.547069 0.939998 0.608376
480 4 0.952931 0.560002 0.391624
481 4 0.42957 0.389625 0.855873
482 4 0.57043 0.610375 0.144127
483 4 0.820431 0.639625 0.644127
484 4 0.67957 0.860375 0.355873
485 4 0.42957 0.889625 0.855873
486 4 0.57043 0.110375 0.144127
487 4 0.820431 0.139624 0.644127
488 4 0.67957 0.360375 0.355873
489 4 0.92957 0.389625 0.855873
490 4 0.0704301 0.610375 0.144127
491 4 0.32043 0.639625 0.644127
492 4 0.17957 0.860375 0.355873
493 4 0.92957 0.889625 0.855873
494 4 0.0704301 0.110375 0.144127
495 4 0.32043 0.139625 0.644127
496 4 0.17957 0.360375 0.355873
497 4 0.399551 0.356775 0.996398
498 4 0.600449 0.643225 0.00360138
499 4 0.850449 0.606775 0.503602
500 4 0.649551 0.893225 0.496398
501 4 0.399551 0.856775 0.996398
502 4 0.600449 0.143225 0.00360132
503 4 0.850449 0.106775 0.503602
504 4 0.649551 0.393225 0.496398
505 4 0.899551 0.356775 0.996399
506 4 0.100449 0.643225 0.00360135
507 4 0.350449 0.606775 0.503601
508 4 0.149551 0.893225 0.496399
509 4 0.899551 0.856775 0.996399
510 4 0.100449 0.143225 0.0036013
511 4 0.350449 0.106775 0.503601
512 4 0.149551 0.393225 0.496399
513 4 0.298865 0.449873 0.645931
514 4 0.701135 0.550127 0.354069
515 4 0.951135 0.699873 0.854069
516 4 0.548865 0.800127 0.145931
517 4 0.298865 0.949873 0.645931
518 4 0.701135 0.0501267 0.354069
519 4 0.951135 0.199873 0.854069
520 4 0.548865 0.300127 0.145931
521 4 0.798865 0.449873 0.645931
522 4 0.201135 0.550127 0.354069
523 4 0.451135 0.699873 0.854069
524 4 0.048865 0.800127 0.145931
525 4 0.798865 0.949873 0.645931
526 4 0.201135 0.0501267 0.354069
527 4 0.451135 0.199873 0.854069
528 4 0.048865 0.300127 0.145931
529 4 0.388093 0.394677 0.613084
530 4 0.611907 0.605323 0.386916
531 4 0.861907 0.644677 0.886916
532 4 0.638093 0.855323 0.113084
533 4 0.388093 0.894677 0.613084
534 4 0.611907 0.105323 0.386916
535 4 0.861907 0.144677 0.886916
536 4 0.638093 0.355323 0.113084
537 4 0.888093 0.394677 0.613084
538 4 0.111907 0.605323 0.386916
539 4 0.361907 0.644677 0.886916
540 4 0.138093 0.855323 0.113084
541 4 0.888093 0.894677 0.613084
542 4 0.111907 0.105323 0.386916
543 4 0.361907 0.144677 0.886916
544 4 0.138093 0.355323 0.113084
545 4 0.196663 0.461733 0.823741
546 4 0.803337 0.538267 0.176259
547 4 0.0533366 0.711733 0.676259
548 4 0.446663 0.788267 0.323741
549 4 0.196663 0.961733 0.823741
550 4 0.803337 0.0382671 0.176259
551 4 0.0533366 0.211733 0.676259
552 4 0.446663 0.288267 0.323741
553 4 0.696663 0.461733 0.823741
554 4 0.303337 0.538267 0.176259
555 4 0.553337 0.711733 0.676259
556 4 0.946663 0.788267 0.323741
557 4 0.696663 0.961733 0.823741
558 4 0.303337 0.0382671 0.176259
559 4 0.553337 0.211733 0.676259
560 4 0.946663 0.288267 0.323741
561 4 0.197924 0.414238 0.966009
562 4 0.802076 0.585762 0.033991
563 4 0.0520761 0.664238 0.533991
564 4 0.447924 0.835762 0.466009
565 4 0.197924 0.914238 0.966009
566 4 0.802076 0.0857624 0.033991
567 4 0.0520761 0.164238 0.533991
568 4 0.447924 0.335762 0.466009
569 4 0.697924 0.414238 0.966009
570 4 0.302076 0.585762 0.033991
571 4 0.552076 0.664238 0.533991
572 4 0.947924 0.835762 0.466009
573 4 0.697924 0.914238 0.966009
574 4 0.302076 0.0857624 0.033991
575 4 0.552076 0.164238 0.533991
576 4 0.947924 0.335762 0.466009
ITEM: TIMESTEP
1000
ITEM: NUMBER OF ATOMS
576
ITEM: BOX BOUNDS xy xz yz pp pp pp
-5.9737057486497278e+00 1.8961796342006750e+01 1.9056829958951551e-02
-1.2937803324316310e+00 2.6274985850686285e+01 -4.7349667096017871e+00
-4.1647378534568968e-01 1.3229800468045697e+01 -1.3079399344536433e-01
ITEM: ATOMS id type xs ys zs
1 1 0.255642 0.318515 0.87779
5 1 0.259924 0.815252 0.895036
7 1 0.0112841 0.0781497 0.621251
12 1 0.00291891 0.932826 0.373636
14 1 0.250191 0.181256 0.130793
16 1 0.0136439 0.431764 0.338167
17 1 0.177034 0.305402 0.716342
19 1 0.0639626 0.574286 0.807747
21 1 0.174954 0.798691 0.73821
23 1 0.0906428 0.0503017 0.772569
42 1 0.229199 0.755086 0.278725
44 1 0.0205374 3.62936e-05 0.211967
46 1 0.218621 0.235752 0.301622
48 1 0.0505838 0.480257 0.165569
58 1 0.204676 0.717485 0.118598
60 1 0.0621662 0.966231 0.373135
62 1 0.187052 0.215279 0.13273
64 1 0.0795547 0.460867 0.334749
74 1 0.187851 0.702594 0.272439
76 1 0.0672659 0.953992 0.210189
78 1 0.169815 0.187279 0.276861
80 1 0.0985979 0.427946 0.184723
81 1 0.216768 0.354308 0.720795
83 1 0.00813941 0.615861 0.764503
85 1 0.209172 0.849251 0.733084
87 1 0.0526588 0.0972656 0.793167
99 2 0.00473913 0.556438 0.562801
103 2 0.00481201 0.0957807 0.549931
108 2 0.013777 0.9236 0.450894
110 2 0.258117 0.181177 0.0589308
112 2 0.00884929 0.429107 0.410546
113 2 0.117307 0.307786 0.682949
115 2 0.11824 0.589649 0.853069
117 2 0.116585 0.798759 0.703728
119 2 0.148759 0.0518139 0.814763
138 2 0.215299 0.784114 0.321515
140 2 0.0300613 0.0275446 0.158906
142 2 0.195198 0.26014 0.340313
144 2 0.0632299 0.508355 0.120953
154 2 0.17963 0.72342 0.0385833
156 2 0.0975906 0.975567 0.444455
158 2 0.159461 0.232883 0.0599697
160 2 0.113116 0.478729 0.405865
170 2 0.144611 0.70916 0.304432
172 2 0.109805 0.962071 0.176432
174 2 0.126182 0.19408 0.310644
176 2 0.137471 0.424901 0.140749
177 2 0.177325 0.386226 0.686565
179 2 0.0353337 0.651752 0.787619
181 2 0.166271 0.876753 0.703688
183 2 0.0921189 0.122509 0.844269
193 3 0.188232 0.289599 0.822562
195 3 0.06506 0.546701 0.714993
197 3 0.193331 0.784948 0.848461
199 3 0.0792807 0.0474427 0.663086
209 3 0.127955 0.302775 0.857278
211 3 0.134153 0.557122 0.698472
213 3 0.131013 0.796541 0.881924
215 3 0.138456 0.0698423 0.63567
225 3 0.200722 0.265142 0.6606
227 3 0.0381553 0.540334 0.869004
229 3 0.197646 0.759867 0.681834
231 3 0.0698821 0.00667858 0.818971
241 3 0.181567 0.277774 0.552688
243 3 0.090615 0.502118 0.919492
245 3 0.168826 0.772071 0.573804
247 3 0.0941144 0.0113989 0.930777
266 3 0.210374 0.76619 0.172408
268 3 0.0404499 0.0161168 0.314878
270 3 0.207206 0.256669 0.203185
272 3 0.0629163 0.50157 0.262566
273 3 0.251075 0.209788 0.839484
275 3 0.0182583 0.456924 0.70795
279 3 0.0150619 0.961588 0.632623
286 3 0.26012 0.292528 0.190472
288 3 0.00762496 0.536618 0.27438
298 3 0.160415 0.689515 0.166617
300 3 0.10862 0.945726 0.31647
302 3 0.134871 0.186911 0.169126
304 3 0.130341 0.431535 0.291332
314 3 0.12609 0.646872 0.102836
316 3 0.150421 0.902333 0.368653
318 3 0.106605 0.139504 0.113036
320 3 0.161249 0.387445 0.352382
327 3 0.00113222 0.085486 0.84555
330 3 0.239126 0.670775 0.34164
332 3 0.0216236 0.912802 0.156418
334 3 0.218632 0.145725 0.323666
336 3 0.0507296 0.386376 0.145972
346 3 0.205037 0.625709 0.367601
348 3 0.058839 0.868332 0.131645
350 3 0.183421 0.0983707 0.336716
352 3 0.0816758 0.335683 0.141892
353 3 0.253196 0.366656 0.829527
357 3 0.247863 0.863497 0.84148
359 3 0.0163852 0.11921 0.6908
364 3 0.00336444 0.884794 0.316025
366 3 0.248149 0.132753 0.174478
368 3 0.0171645 0.381118 0.299545
369 3 0.210324 0.402365 0.868427
371 3 0.0207627 0.649759 0.61237
373 3 0.208617 0.899109 0.884652
375 3 0.0509567 0.164484 0.667294
385 4 0.0663892 0.30951 0.792581
387 4 0.188493 0.565382 0.776544
389 4 0.0700274 0.803548 0.818887
391 4 0.202874 0.0641487 0.697096
401 4 0.13283 0.300471 0.949259
403 4 0.138673 0.551279 0.61372
405 4 0.137782 0.790028 0.972446
407 4 0.125959 0.0997312 0.563436
417 4 0.213708 0.257614 0.499432
419 4 0.0658792 0.465547 0.9542
421 4 0.186805 0.745197 0.511721
423 4 0.0900311 0.973408 0.980767
433 4 0.12848 0.306156 0.517488
435 4 0.156031 0.514672 0.953408
437 4 0.12334 0.807302 0.545212
439 4 0.124595 0.0512294 0.972261
449 4 0.207069 0.18234 0.773965
451 4 0.0491191 0.425299 0.771571
453 4 0.225586 0.675261 0.792891
455 4 0.0495343 0.927697 0.69067
465 4 0.240542 0.217165 0.921763
467 4 0.026649 0.458487 0.622748
469 4 0.255927 0.709462 0.942177
471 4 0.0318676 0.972813 0.557095
490 4 0.135044 0.604904 0.143401
492 4 0.187477 0.877445 0.326914
494 4 0.0927189 0.102955 0.159163
496 4 0.138067 0.345068 0.319619
506 4 0.0958942 0.652668 0.00969327
508 4 0.155764 0.892058 0.458162
510 4 0.0804257 0.140417 0.0187838
512 4 0.198294 0.39373 0.443488
517 4 0.241448 0.929458 0.626633
522 4 0.224661 0.584612 0.34863
524 4 0.0610881 0.828407 0.17851
526 4 0.201556 0.0577918 0.304249
528 4 0.0429492 0.297901 0.137473
538 4 0.167078 0.630645 0.424641
540 4 0.0936125 0.873911 0.0713678
542 4 0.146076 0.0984395 0.393124
544 4 0.146796 0.333544 0.150457
545 4 0.185625 0.439246 0.814793
547 4 0.0412066 0.690039 0.661291
549 4 0.191731 0.942334 0.849194
551 4 0.0612974 0.200543 0.727423
561 4 0.218296 0.402708 0.961425
563 4 0.0349403 0.642331 0.531922
565 4 0.19408 0.887125 0.963121
567 4 0.0622911 0.166917 0.5848
2 1 0.737465 0.679829 0.113918
3 1 0.999841 0.558283 0.633449
4 1 0.508774 0.9167 0.386039
6 1 0.736441 0.173844 0.128695
8 1 0.476892 0.445408 0.370194
9 1 0.756201 0.320316 0.887569
10 1 0.274232 0.686134 0.134203
11 1 0.495998 0.580738 0.614055
13 1 0.728935 0.813702 0.878359
15 1 0.493632 0.059936 0.633489
18 1 0.819947 0.695189 0.267294
20 1 0.435314 0.934895 0.215048
22 1 0.807577 0.190791 0.297476
24 1 0.417937 0.467574 0.201948
25 1 0.685755 0.306854 0.720696
26 1 0.340282 0.70721 0.296644
27 1 0.569431 0.558695 0.77984
28 1 0.925114 0.946308 0.214137
29 1 0.672703 0.799279 0.701147
30 1 0.32312 0.189974 0.301628
31 1 0.558428 0.0471566 0.796844
32 1 0.945472 0.431343 0.164342
33 1 0.279171 0.259799 0.706105
34 1 0.720888 0.744841 0.279511
35 1 0.969496 0.519076 0.812042
36 1 0.546646 0.975542 0.222211
37 1 0.278946 0.759922 0.725139
38 1 0.695485 0.236392 0.288094
39 1 0.99001 0.0020287 0.773436
40 1 0.526054 0.513343 0.231879
41 1 0.787817 0.254617 0.730536
43 1 0.460831 0.509597 0.757162
45 1 0.782429 0.753337 0.728127
47 1 0.439666 0.00844507 0.787332
49 1 0.321509 0.288278 0.872816
50 1 0.676977 0.715238 0.115778
51 1 0.934904 0.526298 0.639631
52 1 0.574939 0.946612 0.389301
53 1 0.328466 0.79026 0.88847
54 1 0.671356 0.206561 0.125948
55 1 0.94715 0.0435976 0.61838
56 1 0.546637 0.476733 0.38757
57 1 0.821236 0.285898 0.895448
59 1 0.430249 0.547777 0.599027
61 1 0.800446 0.781768 0.888829
63 1 0.419144 0.0372446 0.626027
65 1 0.320163 0.310093 0.710703
66 1 0.675572 0.697727 0.276514
67 1 0.914453 0.564203 0.776371
68 1 0.586174 0.922812 0.230812
69 1 0.316421 0.809187 0.721707
70 1 0.657998 0.184386 0.278529
71 1 0.948733 0.050167 0.784126
72 1 0.56832 0.464353 0.236035
73 1 0.839228 0.304858 0.743155
75 1 0.421114 0.559309 0.761982
77 1 0.823011 0.805332 0.737809
79 1 0.404194 0.0630484 0.776953
82 1 0.774861 0.648188 0.269106
84 1 0.474553 0.883781 0.220822
86 1 0.767444 0.139749 0.288355
88 1 0.458012 0.419339 0.204264
89 1 0.731617 0.353369 0.726589
90 1 0.29773 0.659715 0.301816
91 1 0.530509 0.606281 0.784206
92 1 0.970519 0.899956 0.210667
93 1 0.712764 0.847885 0.720376
94 1 0.278813 0.14026 0.284627
95 1 0.52181 0.0984795 0.790583
96 1 0.99022 0.383229 0.188884
97 2 0.264531 0.321003 0.960166
98 2 0.731133 0.669227 0.0398346
100 2 0.504654 0.914864 0.458468
101 2 0.265207 0.824051 0.972954
102 2 0.732958 0.170113 0.0544182
104 2 0.465603 0.437801 0.439568
105 2 0.753602 0.329034 0.961671
106 2 0.279988 0.671843 0.0660378
107 2 0.500395 0.591838 0.541576
109 2 0.719783 0.819222 0.947877
111 2 0.487296 0.0655161 0.554547
114 2 0.877599 0.69046 0.311768
116 2 0.375693 0.928674 0.174241
118 2 0.863316 0.18861 0.348534
120 2 0.359943 0.465234 0.152373
121 2 0.631725 0.313825 0.665809
122 2 0.395831 0.705034 0.34154
123 2 0.625057 0.558846 0.832287
124 2 0.867333 0.934016 0.181183
125 2 0.616652 0.803296 0.650185
126 2 0.381032 0.180838 0.336808
127 2 0.613074 0.0473067 0.848632
128 2 0.892034 0.423274 0.111976
129 2 0.297389 0.231043 0.670403
130 2 0.708261 0.772225 0.327484
131 2 0.952619 0.493957 0.860766
132 2 0.571006 0.00771536 0.192384
133 2 0.291985 0.732151 0.677672
134 2 0.678443 0.261923 0.3373
135 2 0.972449 0.969135 0.801195
136 2 0.545365 0.546167 0.203912
137 2 0.802408 0.225935 0.686225
139 2 0.442047 0.478607 0.792074
141 2 0.80439 0.728671 0.68007
143 2 0.425297 0.978209 0.829985
145 2 0.359331 0.27854 0.949065
146 2 0.646365 0.728633 0.0459036
147 2 0.90689 0.504941 0.573008
148 2 0.606766 0.957213 0.465957
149 2 0.36515 0.783332 0.961557
150 2 0.645709 0.214335 0.0486458
151 2 0.908642 0.0347658 0.540279
152 2 0.578322 0.477624 0.467086
153 2 0.850138 0.278937 0.968729
155 2 0.393869 0.544728 0.520937
157 2 0.828229 0.773849 0.965471
159 2 0.387261 0.0293818 0.548769
161 2 0.355412 0.308326 0.663362
162 2 0.635593 0.703001 0.313951
163 2 0.875355 0.560903 0.815094
164 2 0.625007 0.924449 0.192828
165 2 0.352409 0.805914 0.675017
166 2 0.615291 0.183291 0.312912
167 2 0.914519 0.0423172 0.824957
168 2 0.617029 0.470709 0.214981
169 2 0.883227 0.298844 0.713237
171 2 0.378055 0.555517 0.790962
173 2 0.868797 0.805424 0.71195
175 2 0.359038 0.0622521 0.80583
178 2 0.808691 0.614581 0.30293
180 2 0.43858 0.858965 0.170338
182 2 0.802529 0.110304 0.337143
184 2 0.421747 0.394008 0.152195
185 2 0.697051 0.383403 0.682823
186 2 0.334839 0.632267 0.345951
187 2 0.565579 0.632868 0.829812
188 2 0.936735 0.869563 0.165242
189 2 0.681632 0.876429 0.67458
190 2 0.315423 0.109732 0.326293
191 2 0.559034 0.127576 0.832144
192 2 0.960913 0.350869 0.156522
194 3 0.811698 0.702148 0.16153
196 3 0.443058 0.946982 0.318995
198 3 0.804729 0.200716 0.19448
200 3 0.416194 0.47618 0.30806
201 3 0.688542 0.294283 0.825214
202 3 0.33937 0.714302 0.19018
203 3 0.565259 0.550772 0.674419
204 3 0.932547 0.95716 0.322297
205 3 0.66902 0.787197 0.80924
206 3 0.31535 0.206871 0.200664
207 3 0.555544 0.0302489 0.694255
208 3 0.945054 0.453854 0.262893
210 3 0.874368 0.682266 0.134386
212 3 0.372001 0.940498 0.336427
214 3 0.875269 0.191198 0.179444
216 3 0.346051 0.45994 0.315514
217 3 0.623564 0.30986 0.847605
218 3 0.407442 0.695532 0.178581
219 3 0.633928 0.564354 0.662896
220 3 0.869622 0.941297 0.351087
221 3 0.596384 0.796315 0.819623
222 3 0.382547 0.196345 0.179724
223 3 0.624482 0.04221 0.67845
224 3 0.877091 0.444379 0.280544
226 3 0.802656 0.737516 0.322731
228 3 0.468689 0.970839 0.167244
230 3 0.775045 0.231244 0.339587
232 3 0.450658 0.50984 0.165991
233 3 0.713814 0.264326 0.676196
234 3 0.306209 0.751203 0.326341