LAMMPS data file via write_data, version 15 Apr 2020, timestep = 80000

576 atoms
4 atom types

-5.1681002664492262e+00 2.2872100739448864e+01 xlo xhi
1.9920977418705164e+00 2.3119901769829482e+01 ylo yhi
3.7445660759323651e-02 1.2775881021940574e+01 zlo zhi
1.8240557028208435e+00 -7.7301235972037556e+00 -3.1077823095930861e+00 xy xz yz

Masses

1 12.0107
2 1.00794
3 14.0067
4 15.9994

Atoms # full

115 1 2 2.2581808963130548e-01 -1.0411839496235451e+01 8.1250931411244878e+00 1.0167409666790917e+01 0 0 0
199 1 3 -2.3077358993263097e-01 -1.0209524856003862e+01 1.4249961076625961e+00 9.5284918888165180e+00 0 0 0
387 1 4 -2.3042146022851007e-01 -8.9261432449465214e+00 7.3143441610728530e+00 8.1191625338567164e+00 0 0 0
12 1 1 6.4093402241019587e-02 -5.9007829994915824e+00 2.1247859718801081e+01 5.1495900848790299e+00 1 0 0
236 1 3 -1.9011056069861704e-01 -5.9837530108550325e+00 2.3603326555466433e+00 3.4775506859875907e+00 1 1 0
252 1 3 4.0172820094612582e-01 -4.7404927834104216e+00 2.4251030173579489e+00 2.5783991696998405e+00 1 1 0
371 1 3 4.3952701442188619e-01 -9.1996358555138400e+00 1.1546928546094334e+01 8.7436037284486403e+00 0 0 0
563 1 4 -2.3198172467920880e-01 -8.9809999187587124e+00 1.2828066040645933e+01 8.5059831053447610e+00 0 0 0
386 1 4 -3.3846299366209903e-01 -7.1479306016329209e+00 1.5514557337678498e+01 5.7041524266270418e+00 1 0 0
515 1 4 -1.9784759631921850e-01 1.7046488473201663e+01 1.2783305505476637e+01 1.1442890513398094e+01 0 0 0
192 1 2 2.5168416581706482e-01 -5.4875485634261194e+00 7.3978994629568202e+00 1.8515729869677990e+00 1 0 0
103 1 2 2.4497496215120182e-01 -1.0034454107469227e+01 3.5064645319100163e+00 9.3314433329237012e+00 0 0 0
476 1 4 -1.9862051347736526e-01 -8.3198639141026334e+00 4.2282954975984319e+00 6.2738895675579753e+00 1 0 0
23 1 1 8.1312827115179731e-02 1.6744937174862809e+01 6.0109299487170254e-01 1.0291362385542438e+01 -1 0 0
183 1 2 2.5678204208726135e-01 -1.1936469737118072e+01 1.4185348015705515e+00 1.2359916970166147e+01 0 0 0
240 1 3 -2.5682372261195185e-01 -4.6723000883667218e+00 1.0504851176678956e+01 1.2547769858168638e+00 1 0 0
16 1 1 9.8302600326584069e-02 2.1266275945426575e+01 9.7635326379572014e+00 3.7047034382785138e+00 0 0 0
284 1 3 4.3304570672668963e-01 -7.8660716501906194e+00 3.3402255066394471e+00 5.4394967579257640e+00 1 0 0
380 1 3 4.4101933289211132e-01 -5.7958193398060160e+00 1.9002440722283747e+01 4.0565038204255099e+00 1 0 0
560 1 4 -2.3344144473282119e-01 2.1017939519958816e+01 6.2288042757941513e+00 2.9071384037321861e+00 0 0 0
384 1 3 4.2754816337764051e-01 2.0740199809231129e+01 7.2428575927183507e+00 3.6831631363649868e+00 0 0 0
179 1 2 2.5057770379368310e-01 -1.0036421201515717e+01 1.0492556255030237e+01 1.0785067284655501e+01 0 0 0
368 1 3 -2.0795463373852591e-01 -6.2564263233813833e+00 8.3564628128989789e+00 3.7075488956752594e+00 1 0 0
375 1 3 4.0156479426200420e-01 -1.0310789058494880e+01 3.2684680264893831e+00 1.2021902714563151e+01 0 0 0
96 1 1 8.6843369937867995e-02 -5.3634259405218998e+00 8.3396928739868113e+00 2.4327897537337271e+00 1 0 0
188 1 2 2.4589526854840504e-01 -3.9049750103934304e+00 2.0304226879765569e+01 2.8192702703231163e+00 1 0 0
402 1 4 -2.1177218154727920e-01 2.1488585159540669e+01 1.5494283232623781e+01 3.5495959281715361e+00 0 0 0
44 1 1 9.9214344353104236e-02 -5.5899668113080452e+00 2.4538795055055469e+00 4.9246363176015739e+00 0 1 0
60 1 1 9.0554386612111154e-02 -7.0151939862784172e+00 1.0417560570819693e+00 6.2495129940407619e+00 0 1 0
64 1 1 1.1136087644504125e-01 -5.7389180917891842e+00 1.0758092570596817e+01 4.3684852685250002e+00 0 0 0
74 1 1 8.9813353668294016e-02 2.2860329935484192e-01 1.7031973889600366e+01 2.1964606239262396e+00 0 0 0
76 1 1 9.9814627040206383e-02 -4.8540268789491527e+00 1.0997703489353530e+00 5.4935972079162250e+00 0 1 0
80 1 1 9.8939874136128841e-02 -3.6808227048001134e+00 9.8845569549210062e+00 3.4421199172300017e+00 0 0 0
113 1 2 2.4519026747474448e-01 -5.9795744883380921e+00 8.4433158818257219e+00 9.3704111639640431e+00 0 0 0
117 1 2 2.6020526314949310e-01 -6.6117661794265121e+00 1.5145354640925376e+01 9.3083259151708262e+00 0 0 0
119 1 2 2.6041706774712692e-01 -1.0838719820097463e+01 -2.4347944462602777e-01 1.0865581847541481e+01 0 0 0
138 1 2 2.5885933160651409e-01 -7.8235204394429037e-01 1.7039041932412395e+01 4.0802396509455159e+00 0 0 0
140 1 2 2.3706622832942451e-01 -5.0047618961749221e+00 3.4024380920010149e+00 5.1083794405286698e+00 0 0 0
156 1 2 2.3851945422105478e-01 -7.6361787653636863e+00 9.9064568588065605e-01 7.0921905012355611e+00 0 1 0
160 1 2 2.5658231640683349e-01 -6.2008834365625773e+00 1.1217870781587497e+01 5.2781128061853719e+00 0 0 0
170 1 2 2.4420688821629202e-01 -8.3836790687776297e-01 1.7258929709536936e+01 1.8144399048462121e+00 0 0 0
172 1 2 2.5215765187909067e-01 -3.8072882838137003e+00 1.3199689857657331e+00 5.7760421872412717e+00 0 1 0
176 1 2 2.4765172095049076e-01 -2.5996228604704577e+00 9.9347391655669597e+00 3.6618868270315317e+00 0 0 0
181 1 2 2.6228916027054938e-01 -5.9192683232023242e+00 1.6660714306686121e+01 7.3211866157235885e+00 0 0 0
197 1 3 -2.3284866744664431e-01 -5.8354093133997811e+00 1.6876421055965725e+01 1.0537161205842743e+01 0 0 0
211 1 3 4.4518251810849291e-01 1.8578398263097213e+01 8.4420405605694278e+00 7.6762791388693392e+00 -1 0 0
213 1 3 4.1744041017970457e-01 -7.2429686326751206e+00 1.7372556121867277e+01 1.0660630893661097e+01 0 0 0
215 1 3 4.1882509852359406e-01 -8.9233094987621051e+00 1.3608605917096441e+00 1.0325106227264701e+01 0 0 0
241 1 3 4.4273556255821500e-01 -5.6844752657997741e+00 6.9437447745328313e+00 7.2011766332181200e+00 0 0 0
268 1 3 -2.2970889552722756e-01 -6.6913108085589510e+00 2.5108828539258332e+00 5.9217893248780884e+00 0 0 0
272 1 3 -1.7963674542604668e-01 -5.2202488300425749e+00 1.1791073353379945e+01 3.4153302758686848e+00 0 0 0
298 1 3 -1.9163118283918371e-01 1.0732304569895561e+00 1.8202457933895840e+01 1.6727015370160936e+00 0 0 0
300 1 3 -2.2131955359868719e-01 -5.6726814060842781e+00 4.9833203173312701e-01 6.5827286778453846e+00 0 1 0
304 1 3 -2.3516260298317390e-01 -4.4430943276159063e+00 1.0019419841556299e+01 4.7291628690284764e+00 0 0 0
314 1 3 4.1489620287541340e-01 2.9984463628535618e-01 1.9450468736460468e+01 1.2791900973505730e+00 0 0 0
330 1 3 -2.5128093971202198e-01 7.0602636437745048e-01 1.5653448090967139e+01 1.7487441209466827e+00 0 0 0
336 1 3 -2.3468782471703042e-01 -3.8881069735288092e+00 8.5332982459299487e+00 2.7288798317276295e+00 0 0 0
346 1 3 4.2871214557744802e-01 5.3759827753599154e-01 1.5496245033441433e+01 2.5019270548466366e-01 0 0 0
348 1 3 4.6965481575428736e-01 -2.0697921933653980e+00 2.0035434085429205e+01 4.7841937011059388e+00 0 0 0
352 1 3 4.3302161384412868e-01 -3.3657777159197422e+00 7.4036560917166465e+00 3.5841030015007789e+00 0 0 0
373 1 3 4.0816008854553221e-01 -6.2861260050938395e+00 1.8988027695818559e+01 8.4505995050226197e+00 0 0 0
385 1 4 -2.8167558469912846e-01 -7.0697480603142910e+00 8.8805970304912947e+00 1.1553692555825791e+01 0 0 0
389 1 4 -2.1416173465169130e-01 -8.2578661366792474e+00 1.6623749627621045e+01 1.0327226951060240e+01 0 0 0
391 1 4 -2.9489703450563909e-01 -8.8412589961344565e+00 4.8800662210372825e-01 1.1284080649701288e+01 0 0 0
405 1 4 -2.6975262193660526e-01 -7.4170520347870701e+00 1.8572377546875511e+01 1.1121359460140411e+01 0 0 0
407 1 4 -2.4431472711496122e-01 -7.9666948885099664e+00 2.1902078312750928e+00 9.9948329933382922e+00 0 0 0
417 1 4 -3.0299224182183015e-01 -5.8049483608722188e+00 6.0603728472045901e+00 6.2737642646369940e+00 0 0 0
433 1 4 -3.1879207613335525e-01 -5.8396345175466884e+00 8.2022986180298219e+00 6.9427651932038987e+00 0 0 0
437 1 4 -2.3989598788279420e-01 -5.8918101974198649e+00 1.3125839812047644e+01 8.3250695502035121e+00 0 0 0
449 1 4 -2.2372339732372465e-01 -6.8018659411018740e+00 4.9679717495202684e+00 1.0360324062206139e+01 0 0 0
490 1 4 -2.2320310794803405e-01 -7.0275409247278908e-01 1.9291814016317911e+01 4.9715362070194802e-01 0 0 0
506 1 4 -2.4558264209435426e-01 7.0808236218358633e-01 2.0585824669260695e+01 1.6986761131126169e+00 0 0 0
522 1 4 -2.2894361424516391e-01 -6.1356189715618896e+00 1.2237221687205343e+01 1.2253265863957459e+01 0 0 -1
528 1 4 -2.6881414632406125e-01 -3.8135402385822648e+00 6.1947887504912904e+00 3.4461073019071469e+00 0 0 0
538 1 4 -2.3163024112559993e-01 -8.3099087702024725e+00 1.2652789067149547e+01 1.2410615808423177e+01 0 0 -1
540 1 4 -2.9188647666221285e-01 -1.8614573293122572e+00 1.9925564648083601e+01 6.0720547302418559e+00 0 0 0
544 1 4 -2.8564671794261320e-01 -2.4402996982285279e+00 7.6606419693695225e+00 4.4587881002276264e+00 0 0 0
547 1 4 -2.9413482353999876e-01 -8.3625223903192953e+00 1.0847977888802165e+01 9.4042524508697909e+00 0 0 0
549 1 4 -3.3346455398257729e-01 -6.2960085155903824e+00 2.0240834475925777e+01 8.7199543683576799e+00 0 0 0
551 1 4 -3.1123784996863374e-01 -2.6841488488020659e+00 5.8723323729052339e+00 4.6705624007335333e-01 0 0 1
565 1 4 -2.8959004608492900e-01 -7.2937923364587247e+00 1.8458105828273517e+01 7.7738232596523256e+00 0 0 0
567 1 4 -2.5119443503632216e-01 -9.5241500992166053e+00 4.2940050347024670e+00 1.1825609289486778e+01 0 0 0
442 1 4 -2.7611790975255424e-01 -1.1037183315895671e+00 1.4545969383024548e+01 3.4374648059219113e+00 0 0 0
332 1 3 -2.5535168553760429e-01 -2.8163935568629546e+00 2.1294722101563455e+01 4.3146584711954157e+00 0 0 0
364 1 3 -2.2322601416570484e-01 -5.0058664715762777e+00 2.0137266002000477e+01 4.6954593350044043e+00 1 0 0
524 1 4 -3.4680324369408033e-01 -1.3017182004987875e+00 1.9439035872680485e+01 3.9581296071698877e+00 0 0 0
48 1 1 8.1311016551570164e-02 -4.1691107788681663e+00 1.1074958563313011e+01 2.5050567521112006e+00 0 0 0
144 1 2 2.1871103316286539e-01 -3.3613087333582694e+00 1.1754612983711556e+01 2.2900537763604252e+00 0 0 0
288 1 3 3.8178270197466235e-01 -4.5308424197353059e+00 1.2966684441710488e+01 4.0873399581307890e+00 1 0 0
480 1 4 -2.2620056988164544e-01 -4.6541053077762768e+00 1.3145246827333866e+01 5.3617517906338428e+00 1 0 0
92 1 1 7.6733517702579426e-02 -4.1261702000766727e+00 2.0880435793639677e+01 3.6708623698127818e+00 1 0 0
444 1 4 -2.5732100412306952e-01 -3.6622886852253838e+00 2.8803699289263269e+00 3.1229503388953201e+00 1 1 1
464 1 4 -1.9734143056743186e-01 -4.0238817363569739e+00 1.3897749438673667e+01 3.3296280228747404e+00 1 0 0
1 1 1 6.9313489014646595e-02 -3.7769250414286919e+00 7.0648201533660409e+00 1.1488198310947748e+01 0 0 0
5 1 1 6.8645760211103843e-02 -4.9142143610908970e+00 1.7989838046388833e+01 1.0211438105830151e+01 0 0 0
14 1 1 7.0888533691191163e-02 1.5902738009118922e+00 4.8233290272366425e+00 1.5458525200364623e+00 0 0 0
17 1 1 7.7727752100309619e-02 -5.1719511100820714e+00 7.6418292651912729e+00 9.5968956121685309e+00 0 0 0
21 1 1 8.5117724228026520e-02 -5.7027924423012637e+00 1.5863243091211391e+01 9.3829850699941346e+00 0 0 0
42 1 1 8.6473259986882767e-02 2.3252603346895917e-01 1.6937728704015324e+01 3.7713657963880922e+00 0 0 0
46 1 1 9.2386808965877587e-02 3.2184853626612142e+00 6.9090620478058735e+00 3.1990664181257316e+00 0 0 0
58 1 1 7.7360714969437763e-02 1.9133786388635734e+00 1.8469830634711261e+01 2.8901743513913245e+00 0 0 0
62 1 1 8.8798398623223251e-02 1.1033824259982135e+00 6.0066158872295201e+00 2.3516612043241816e+00 0 0 0
78 1 1 9.5365077138833229e-02 2.6530905135149521e+00 5.8538049322921522e+00 4.2565824081274739e+00 0 0 0
81 1 1 8.1204081146279139e-02 -3.7897679338730290e+00 8.2526850854265028e+00 9.4021406153678342e+00 0 0 0
85 1 1 8.0926728992688213e-02 -5.2142088076759272e+00 1.6714482219681578e+01 8.1670269346769935e+00 0 0 0
110 1 2 2.5234199035627614e-01 7.7014013113284729e-01 4.3403583247737263e+00 9.4673788892372945e-01 0 0 0
142 1 2 2.3167785904294608e-01 3.7969318784687269e+00 7.7401871526807922e+00 3.7431185252294554e+00 0 0 0
154 1 2 2.6350399810809771e-01 2.2094411662414180e+00 1.9542522945953646e+01 2.9709560871002503e+00 0 0 0
158 1 2 2.4203783731333847e-01 1.0128730623183468e-01 6.3306633674319102e+00 2.1430154076526198e+00 0 0 0
174 1 2 2.4012369840705464e-01 2.7810755623930987e+00 6.2941016122160258e+00 5.3063400334513817e+00 0 0 0
177 1 2 2.4419264810016428e-01 -3.8821247626328397e+00 9.3001064205807289e+00 9.0899558698653102e+00 0 0 0
193 1 3 -2.3406000831091975e-01 -5.2505255754398634e+00 7.2676013601378777e+00 1.1155900530776265e+01 0 0 0
209 1 3 4.4197589488932071e-01 -5.9375579641367473e+00 8.3660552105401944e+00 1.1935432793832220e+01 0 0 0
225 1 3 -2.1162660283190435e-01 -5.5598301847392353e+00 6.4921934411441882e+00 8.6677650236928265e+00 0 0 0
229 1 3 -2.0154351415517988e-01 -4.8085646306954679e+00 1.4712969550726513e+01 9.8291706112323922e+00 0 0 0
245 1 3 4.1584395260455281e-01 -4.7762726775830169e+00 1.3571362734263715e+01 8.8063606209279293e+00 0 0 0
266 1 3 -2.0837300195587871e-01 8.9952507510503210e-01 1.8202161944303036e+01 4.1321441553045011e+00 0 0 0
270 1 3 -1.8275716999266542e-01 2.1193909718805743e+00 7.2777980311939832e+00 2.2705909852107329e+00 0 0 0
273 1 3 4.5213374338201556e-01 -5.6752403283337864e+00 4.7821798618639582e+00 1.0998780116255244e+01 0 0 0
286 1 3 4.1397564028801065e-01 1.5316826943777517e+00 8.5638783472048701e+00 2.7231576484464539e+00 0 0 0
302 1 3 -2.5111340257704545e-01 1.2167241483081277e+00 5.7841154816767464e+00 3.8229848089774663e+00 0 0 0
316 1 3 4.5203848655248463e-01 -5.1805644860758617e+00 9.1215024273919720e-01 7.9778965575709115e+00 0 1 0
318 1 3 4.4718776548622086e-01 4.1009674862107026e-01 4.7137564644385410e+00 4.5173216844976141e+00 0 0 0
320 1 3 4.2932601468571674e-01 -3.5945207850298937e+00 1.0598307887422463e+01 5.8354487951019642e+00 0 0 0
353 1 3 -2.2167707940178641e-01 -3.0615108481606512e+00 8.2330277755083969e+00 1.0761085784715728e+01 0 0 0
357 1 3 -2.0834453816352261e-01 -5.0351648388680843e+00 1.8192341718001092e+01 8.6996241762196931e+00 0 0 0
366 1 3 -2.1347789727108968e-01 1.9754597296722762e+00 3.5963839511315596e+00 2.4858018959121226e+00 0 0 0
369 1 3 4.1072377331646515e-01 -3.1814343855640708e+00 9.5401098662053592e+00 1.1520426083119833e+01 0 0 0
401 1 4 -2.9213301428663513e-01 2.3653615010796951e+00 1.1983321433146951e+01 2.4984602852792298e-01 0 0 1
421 1 4 -2.5637743264448426e-01 -3.6013942503647911e+00 1.3263532925182680e+01 8.3201167963989633e+00 0 0 0
453 1 4 -2.8702135385801120e-01 -5.2155284807485476e+00 1.5146526840077490e+01 1.2182208936880890e+01 0 0 0
465 1 4 -3.1368187094607547e-01 -5.6462986120551806e+00 4.4296849046750753e+00 1.2252346841157173e+01 0 0 0
469 1 4 -3.0079269878759007e-01 3.8279521755295773e+00 1.9422979239021664e+01 8.5114505675043761e-01 0 0 1
492 1 4 -2.4942822227415798e-01 -4.7339024934020824e+00 -1.4681352867145225e-03 8.7576353052576508e+00 0 1 0
494 1 4 -2.6619425572019795e-01 4.0631392562265489e-01 4.6326405574998253e+00 5.7860594695691763e+00 0 0 0
496 1 4 -2.6800284895604765e-01 -2.3383832440647803e+00 1.0751634611231422e+01 5.7000739899405168e+00 0 0 0
508 1 4 -3.1773733096041140e-01 -5.1019129652438178e+00 2.1655751289584910e+00 8.2609354163251680e+00 0 1 0
510 1 4 -2.4695942626194761e-01 -2.0154430917404298e-01 3.8505982948080395e+00 3.7341357068336456e+00 0 0 0
512 1 4 -2.5088196843961014e-01 -4.1669961132799642e+00 1.0919705917334966e+01 6.9663245711320201e+00 0 0 0
517 1 4 -2.9998288582423571e-01 -4.1446417433321656e+00 1.7633360263270646e+01 5.7848678262720581e+00 0 0 0
545 1 4 -2.6944117696792885e-01 -3.9702824445102376e+00 1.0468014886964871e+01 1.0995864022693802e+01 0 0 0
561 1 4 -2.0724338960973127e-01 -2.3572567253881971e+00 9.8725125935503826e+00 1.2430960088221660e+01 0 0 0
10 1 1 8.2718225708127979e-02 3.1174815344197029e+00 1.7527800789558658e+01 2.9185167746579639e+00 0 0 0
26 1 1 8.4722669278409393e-02 2.1261750064953544e+00 1.5502244515482808e+01 3.8683345546845733e+00 0 0 0
30 1 1 8.5870309438094136e-02 3.9648049855469658e+00 4.8766137848203766e+00 1.8420691779483833e+00 0 0 0
33 1 1 8.4397785511487022e-02 -4.4517815366536144e+00 5.5421106591698415e+00 8.8799619710033255e+00 0 0 0
37 1 1 8.1871027063317309e-02 -3.4363128364583000e+00 1.5292509197738203e+01 1.0058736258015884e+01 0 0 0
49 1 1 8.6912628230117334e-02 -3.3600639811192980e+00 5.6475237435981551e+00 1.0969904572058059e+01 0 0 0
53 1 1 8.6711971741046778e-02 -3.3788903141918656e+00 1.7610531841051326e+01 1.0585346758609145e+01 0 0 0
65 1 1 9.6796462230482161e-02 -2.9309801970367575e+00 6.0352692943721991e+00 8.7053656513242359e+00 0 0 0
69 1 1 9.4883638571687967e-02 -2.9117810653214677e+00 1.6066153024899265e+01 8.8204382526840668e+00 0 0 0
79 1 1 9.8463393659517326e-02 -4.7462388907185726e-01 6.2995094966465182e-01 8.9368950871814299e+00 0 0 0
90 1 1 7.8677458631790487e-02 2.1089718908350354e+00 1.5474698880483608e+01 2.2718982894687345e+00 0 0 0
94 1 1 8.0683752245074111e-02 3.3810265724410966e+00 3.8788533838744321e+00 2.8947836337702735e+00 0 0 0
97 1 2 2.5709787836089737e-01 -3.5750544411269551e+00 7.1836599191497310e+00 1.2573676752843888e+01 0 0 0
101 1 2 2.4738021501564408e-01 -5.1802686730155934e+00 1.8893819240106822e+01 1.0765979989978526e+01 0 0 0
106 1 2 2.6005640782849299e-01 4.0747275592397676e+00 1.8125291293832049e+01 2.9901173467920947e+00 0 0 0
122 1 2 2.1608755027783544e-01 2.5109148024925254e+00 1.4549804009500701e+01 4.3072431080936093e+00 0 0 0
129 1 2 2.4112354369559463e-01 -4.7416057437313714e+00 4.6635503495984194e+00 8.2471740022759654e+00 0 0 0
133 1 2 2.3672732702745300e-01 -2.6811867539545293e+00 1.4511553348807482e+01 1.0293903822949680e+01 0 0 0
143 1 2 2.7567090609034844e-01 1.1729617094907692e+00 1.9470421390587614e+01 8.8706894942697403e+00 0 0 0
145 1 2 2.5731417490651248e-01 -2.9243482148830502e+00 5.1185690866317834e+00 1.1827272330549061e+01 0 0 0
149 1 2 2.3271037246651111e-01 -2.9856307973455412e+00 1.8445048620687054e+01 1.1143532182855722e+01 0 0 0
161 1 2 2.3035452435185483e-01 -2.4151063294493289e+00 5.4846346024879065e+00 7.8491007647245770e+00 0 0 0
165 1 2 2.5459462978032005e-01 -2.0086908858954136e+00 1.5491632799791301e+01 8.5030773567338898e+00 0 0 0
175 1 2 2.3908023602807968e-01 -1.6091327360486023e+00 5.5901507094948677e-01 8.9383881553070417e+00 0 0 0
186 1 2 2.4081661315599423e-01 2.3984505638754925e+00 1.4495918676669925e+01 1.8775270272751758e+00 0 0 0
202 1 3 -2.3634829019911685e-01 3.0625514022270170e+00 1.6563850398203876e+01 4.2607536892049769e+00 0 0 0
206 1 3 -1.9994424144969053e-01 2.8827252482771826e+00 5.0988276356086537e+00 7.9216389059314662e-01 0 0 0
222 1 3 4.0756415131981122e-01 -4.6929182893435355e+00 9.8447971073293905e-01 1.2369420048736281e+01 0 0 -1
234 1 3 -2.0882584552363426e-01 7.5553243106790724e-01 1.5638197244472869e+01 4.4631154806884634e+00 0 0 0
250 1 3 4.1635027885594939e-01 -1.2162578090242526e-01 1.4399277006685207e+01 4.2809811565335067e+00 0 0 0
257 1 3 -2.1858423233904126e-01 -4.4070773742623457e+00 4.8299754700567608e+00 1.0228562672432595e+01 0 0 0
261 1 3 -2.1161407868453902e-01 -3.2392885024690994e+00 1.6278056123471778e+01 1.1288723349734887e+01 0 0 0
277 1 3 4.2999704479294676e-01 -4.2522403156802291e+00 1.6020249596154095e+01 1.2357071110433470e+01 0 0 0
282 1 3 4.6022757462571945e-01 1.5170231711958753e+00 1.8196063572428006e+01 5.5267328728581298e+00 0 0 0
289 1 3 -2.0254219487618369e-01 -2.1948861992766187e+00 5.7133533187056713e+00 9.9540570166004123e+00 0 0 0
293 1 3 -2.2572026367452219e-01 -2.6087574565867531e+00 1.7437485942289662e+01 9.3493616845750402e+00 0 0 0
303 1 3 -2.2487687677532220e-01 1.2763183264942235e-01 1.3411010384195374e+00 7.7734655478526857e+00 0 0 0
309 1 3 4.6331710777315632e-01 -1.1254347992591693e+00 1.7671545411332310e+01 9.5737886699701242e+00 0 0 0
315 1 3 4.7192993169099018e-01 1.0483750456177958e+00 1.4352976165928274e+01 8.4996115376256363e+00 0 0 0
319 1 3 4.4117299345825839e-01 -8.8660037430314986e-01 1.2633409437629157e+00 6.6294957782958930e+00 0 0 0
321 1 3 -2.7953299712131829e-01 -3.0292771910505447e+00 7.4868178744702742e+00 8.2806826033722629e+00 0 0 0
325 1 3 -2.3050947191668347e-01 -3.9419679652427835e+00 1.6086200985440996e+01 7.6517100739355053e+00 0 0 0
337 1 3 4.6622465397843971e-01 -1.7040046100560406e+00 8.1051779827024220e+00 7.9266167385383355e+00 0 0 0
341 1 3 4.8158884838235677e-01 -3.4015404897423149e+00 1.6775527559840818e+01 6.4308577697119498e+00 0 0 0
351 1 3 4.3629175280213794e-01 -8.3906704636498119e-01 2.6558478209234471e+00 1.0361301460203489e+01 0 0 0
362 1 3 -1.9545436554241122e-01 3.1344021622434610e+00 1.6553664136247022e+01 1.8053940571442355e+00 0 0 0
378 1 3 4.2843310857956207e-01 4.4957698270562823e+00 1.5943669951638174e+01 1.4580600459533801e+00 0 0 0
382 1 3 4.1491586772126721e-01 1.9329510179059630e+00 2.2580855330734790e+00 1.7686602106270684e+00 0 0 0
398 1 4 -2.9335600013397389e-01 -3.5408978540998763e+00 4.1405364286672786e-01 1.2275402149652070e+01 0 0 -1
414 1 4 -2.1552278539510181e-01 -5.5419946399749964e+00 9.3001160446720155e-01 1.1396982934148124e+01 0 0 -1
426 1 4 -2.5772766242272538e-01 1.4948805695862433e-02 1.3347916929702025e+01 4.9759898907477451e+00 0 0 0
430 1 4 -3.4337627785042413e-01 4.8204847798487265e+00 8.3329866419512548e+00 1.4312015556702664e+00 0 0 0
458 1 4 -2.3875865401137752e-01 8.9549208419365556e-01 1.7593635913126182e+01 6.4804843222091755e+00 0 0 0
462 1 4 -2.3904573347844610e-01 2.2768619516819477e+00 9.6213462965127032e+00 2.9488343378118533e+00 0 0 0
474 1 4 -3.2240439711085722e-01 2.5530275430983185e+00 1.8946058678756270e+01 5.7223889667588361e+00 0 0 0
478 1 4 -2.7981933029414452e-01 2.5120672513670161e-01 8.6725314296488776e+00 2.7858407305140767e+00 0 0 0
491 1 4 -3.7920037725040850e-01 -2.0201812543642816e-01 1.4284384983089739e+01 8.7936597185278060e+00 0 0 0
495 1 4 -3.6020451461282821e-01 -2.0384987170820281e+00 1.8288524580279890e+00 6.7735486837384968e+00 0 0 0
501 1 4 -3.1525901598820888e-01 -5.6085607840020479e-01 1.8599867367064263e+01 8.8882990359260852e+00 0 0 0
507 1 4 -2.5835954488438156e-01 1.4272800030854125e+00 1.5151140526653041e+01 7.5549396018872486e+00 0 0 0
511 1 4 -2.5554651816146573e-01 -4.5384256955592051e-01 9.3929860055283676e-01 5.4507485180813449e+00 0 0 0
513 1 4 -3.1332630899167518e-01 -1.2194271003457757e+00 9.1382407179231624e+00 8.5036127207226322e+00 0 0 0
527 1 4 -2.9864476623654501e-01 -2.1075836712270739e+00 2.7694046481675336e+00 1.0079467592902592e+01 0 0 0
529 1 4 -2.2848979613615000e-01 -9.8923240061820294e-01 7.4286607918632708e+00 7.0661496058851476e+00 0 0 0
533 1 4 -2.8227816641948622e-01 -2.3195696643072186e+00 1.6311330307153497e+01 5.8808753232558981e+00 0 0 0
543 1 4 -2.3995671252809495e-01 -1.5756754073647272e-01 3.7351960990533675e+00 1.0625174209715652e+01 0 0 0
554 1 4 -2.7186534093467135e-01 4.7891766790232122e+00 1.4744049920078803e+01 1.8555224112774411e+00 0 0 0
558 1 4 -3.0111059294138953e-01 1.3942830508982631e+00 2.2082429068764649e+00 5.7162522733481058e-01 0 0 0
570 1 4 -2.4024157327065518e-01 5.3242595547209461e+00 1.6599795561671048e+01 7.3277213475358527e-01 0 0 0
574 1 4 -2.2728014802518781e-01 4.0877895298726230e+00 2.2334155281895825e+01 2.4408333655512195e+00 0 -1 0
556 1 4 -2.4220125513281499e-01 2.1229416537677022e+01 1.8439988192974440e+01 4.6169408835810763e+00 0 0 0
334 1 3 -1.9186652419706290e-01 3.4668217151851506e+00 4.6061651876643737e+00 4.3001306507952863e+00 0 0 0
350 1 3 4.4359579165547464e-01 3.0505703115401719e+00 3.6294075026603219e+00 5.3893428539605166e+00 0 0 0
526 1 4 -3.1853959765247547e-01 2.9305652658439634e+00 2.3687626451207828e+00 5.0611036731057277e+00 0 0 0
542 1 4 -2.7338407476109294e-01 3.0786648274172421e+00 3.9659256342905138e+00 6.6458353400688885e+00 0 0 0
47 1 1 9.2993293965370635e-02 1.9669609618998223e+00 2.0233088480577901e+01 9.0142191202143707e+00 0 -1 0
59 1 1 8.9356328386270972e-02 2.7813428878864546e+00 1.2624502569539539e+01 8.2059083639113091e+00 0 0 0
63 1 1 1.0868439092691015e-01 1.4100775596408912e+00 6.0262415104537714e-01 7.5304877752882282e+00 0 0 0
75 1 1 1.0106853578115572e-01 1.5479984494204562e+00 1.2552446928076288e+01 1.0269782826233236e+01 0 0 0
126 1 2 2.6402291963192281e-01 4.8149769890701890e+00 4.4910422400872445e+00 1.2973456939324348e+00 0 0 0
139 1 2 2.5588265943013982e-01 4.7121048752614136e-01 1.0666433330960718e+01 9.5168784855075366e+00 0 0 0
155 1 2 2.2669241586383485e-01 2.8525529132429686e+00 1.3173611539814488e+01 7.1995420284013782e+00 0 0 0
159 1 2 2.5561752852192865e-01 1.7857354673000376e+00 8.4135118274914378e-01 6.4462038502116190e+00 0 0 0
171 1 2 2.4277123742298146e-01 5.4162241494968377e-01 1.2972345794319654e+01 1.0502882141046591e+01 0 0 0
190 1 2 2.5979132403050326e-01 3.9276170903574492e+00 2.9209866482642295e+00 2.9208397629093583e+00 0 0 0
212 1 3 4.2312607717285255e-01 6.6117656146059698e+00 1.9880827140329760e+01 3.5502619496893000e+00 0 0 0
218 1 3 4.2945246660586783e-01 4.3793689072297592e+00 1.6089133621588989e+01 4.8188062396839184e+00 0 0 0
238 1 3 -2.3081486675661222e-01 4.3854911202559110e+00 6.2065918397135107e+00 2.4927323679985758e+00 0 0 0
254 1 3 4.7946024529602688e-01 5.1997119216794845e+00 7.1132312018088619e+00 1.5955632710407612e+00 0 0 0
267 1 3 -2.3105511353532199e-01 1.8896716233816218e+00 1.1391971849388614e+01 8.1246993644258332e+00 0 0 0
271 1 3 -2.1838780084794487e-01 2.8012110938256836e+00 2.0266558304980030e+01 7.7776765856727730e+00 0 0 0
299 1 3 -2.4951988222861396e-01 2.0954689236155701e+00 1.3501918080740962e+01 9.1869954682017827e+00 0 0 0
305 1 3 4.1440037601142987e-01 -1.0352413495705637e+00 6.6322194942135351e+00 1.0322489424648783e+01 0 0 0
335 1 3 -2.4075615209707102e-01 -1.8603770331719360e-01 1.2926463502999668e+00 1.0283858793258950e+01 0 0 0
388 1 4 -2.9239610420270057e-01 6.1525698997580784e+00 1.9330287965606598e+01 2.4605815570242235e+00 0 0 0
392 1 4 -2.6043831584716531e-01 6.2244370407251193e+00 1.1123299033331518e+01 1.8637750857624151e+00 0 0 0
394 1 4 -2.4976761864480035e-01 4.3937946294567602e+00 1.5317387560590202e+01 5.8434851239043706e+00 0 0 0
404 1 4 -2.4364022208996305e-01 5.7851429485131636e+00 2.0173494637093086e+01 4.5147370101915278e+00 0 0 0
410 1 4 -2.1401008844913932e-01 5.5028502235045877e+00 1.6631365787136996e+01 4.4305176756194946e+00 0 0 0
420 1 4 -2.7246444356617905e-01 7.3477844163393904e+00 2.1752071815263381e+01 7.9786788369640194e-01 0 -1 0
446 1 4 -2.7824108763064104e-01 6.0066458495681836e+00 6.5257063038375502e+00 7.6718930682945441e-01 0 0 0
479 1 4 -1.9179906506902117e-01 3.6729164192638457e+00 1.8018061171166810e+01 7.7950949402046357e+00 0 0 0
481 1 4 -2.4263559233610887e-01 -9.5158061448426245e-01 7.0323866736969025e+00 1.1547821022254812e+01 0 0 0
485 1 4 -2.7579193985448014e-01 -5.2325137117126630e-01 1.7066761793600257e+01 1.0525360246652724e+01 0 0 0
497 1 4 -1.7840305383371780e-01 2.3823957490101577e-02 6.5801959644195476e+00 9.5654611690400557e+00 0 0 0
539 1 4 -3.1144642781117277e-01 1.1531702132199300e+00 1.4584503189825874e+01 1.2178621175130196e+01 0 0 0
95 1 1 8.6464763100182376e-02 1.2966775073344614e+00 1.3860816101954863e+00 1.0456654419336783e+01 0 0 0
239 1 3 -2.0617938915482378e-01 2.6319944811013123e+00 2.0020241949852299e+01 1.0351500963720831e+01 0 -1 0
287 1 3 4.5702799684623230e-01 3.9310003006002283e+00 1.9270700517906839e+01 7.6715321464164274e+00 0 0 0
347 1 3 4.7507314666212602e-01 2.3011458734356065e+00 1.3986285536988881e+01 1.2173227363883566e+01 0 0 0
431 1 4 -2.0309863905880457e-01 2.3954288631829908e+00 1.7575128851331428e+01 1.0061227368701342e+01 0 0 0
15 1 1 7.9375341665654395e-02 2.5539692263487836e+00 1.1097145816415346e+00 8.4903750849528876e+00 0 0 0
43 1 1 8.6447882907118398e-02 1.4906776990504333e+00 1.1132300845654184e+01 9.5708322353244526e+00 0 0 0
191 1 2 2.4443999472170799e-01 1.3993393364845126e+00 1.8453718531023089e+00 1.1496611439968316e+01 0 0 0
255 1 3 4.3038371158580668e-01 3.0904405434103044e+00 1.8564993011051495e+01 1.0562077226742847e+01 0 -1 0
283 1 3 4.4716431018769365e-01 2.6474325000482839e+00 1.0252944577654668e+01 7.4850766575995840e+00 0 0 0
367 1 3 -1.9737345322770000e-01 2.0452389421077246e+00 2.2273743847973488e+00 9.3956692618893456e+00 0 0 0
452 1 4 -2.9280160956117107e-01 6.8305008766986317e+00 3.0219104091543976e+00 2.3088807146833550e+00 0 0 0
459 1 4 -2.8239392697945792e-01 3.4220215014629964e+00 1.0423364156713061e+01 6.4583551371759880e+00 0 0 0
468 1 4 -3.2928158182320710e-01 5.7612597938973185e+00 1.8456494314317413e+00 3.8802502951489024e+00 0 0 0
108 1 2 2.4506428949351283e-01 -6.7311938859374454e+00 2.0748988110565584e+01 5.6354748091605273e+00 1 0 0
403 1 4 -3.1587202284582577e-01 1.9195888388123400e+01 9.1875511014587694e+00 6.8770730269435623e+00 -1 0 0
31 1 1 9.0731971989781973e-02 1.8882688046111777e+00 -5.2170050243682375e-02 1.0495674509407415e+01 0 0 0
100 1 2 2.4509338361513017e-01 8.2099201156871189e+00 2.0300449623259183e+01 5.5697914499643479e+00 0 0 0
111 1 2 2.4710273399179922e-01 3.3913232727668312e+00 1.4734548230557607e+00 7.8999065431112259e+00 0 0 0
116 1 2 2.5739894444817768e-01 8.1852326460737146e+00 1.9354826478238660e+01 1.5876302610267954e+00 0 0 0
120 1 2 2.4249909637697395e-01 8.1107881075612838e+00 1.3087492505012642e+01 1.9712970059642587e+00 0 0 0
196 1 3 -2.0417565722081860e-01 7.9525617714321726e+00 2.0543523583326643e+01 3.4441430791854413e+00 0 0 0
200 1 3 -2.4993089412363681e-01 7.3756219002496888e+00 1.2043877402198850e+01 3.7885464194301344e+00 0 0 0
207 1 3 -2.5670670525400208e-01 2.9642210897852657e+00 -2.3683845164648165e-02 9.3829503488668173e+00 0 0 0
216 1 3 4.2738246188874929e-01 6.1422933168928537e+00 1.1764278589886281e+01 2.9910134388525296e+00 0 0 0
235 1 3 -1.8005692494139383e-01 2.3579014233882134e+00 1.0139260917748432e+01 1.0285651441669199e+01 0 0 0
244 1 3 4.4821926192654354e-01 8.6372159445045185e+00 2.1781396591722210e+01 5.7822976139268656e-01 0 0 0
251 1 3 3.9291201192744885e-01 1.8323481639368371e+00 9.7990403382597222e+00 1.1672301389347592e+01 0 0 0