ITEM: TIMESTEP
0
ITEM: NUMBER OF ATOMS
448
ITEM: BOX BOUNDS xy xz yz pp pp pp
-2.4186686450000000e-01 1.3879200000000001e+01 8.1284706647000001e-16
0.0000000000000000e+00 1.3274800000000003e+01 -2.4186686450000000e-01
0.0000000000000000e+00 2.2679910358299999e+01 1.4036330231000001e-15
ITEM: ATOMS id type xs ys zs
1 1 0.342722 0.121156 0.262985
2 2 0.244528 0.125747 0.255815
3 3 0.220503 0.153491 0.214384
4 3 0.201499 0.0965939 0.289865
5 2 0.401886 0.150642 0.218904
6 3 0.482209 0.145503 0.229915
7 3 0.367799 0.174846 0.179614
8 1 0.382846 0.0859264 0.318634
9 2 0.318705 0.064417 0.369432
10 4 0.351863 0.0808931 0.422242
11 4 0.232351 0.0304784 0.357076
12 2 0.487513 0.0733506 0.32763
13 4 0.515303 0.0316312 0.377279
14 4 0.544813 0.104862 0.285978
15 1 0.407278 0.371156 0.487015
16 2 0.505471 0.375747 0.494184
17 3 0.529497 0.403491 0.535616
18 3 0.548501 0.346594 0.460135
19 2 0.348114 0.400642 0.531096
20 3 0.267791 0.395503 0.520085
21 3 0.382201 0.424846 0.570386
22 1 0.367154 0.335927 0.431367
23 2 0.431295 0.314417 0.380568
24 4 0.398137 0.330893 0.327758
25 4 0.517649 0.280478 0.392924
26 2 0.262487 0.323351 0.42237
27 4 0.234697 0.281631 0.372721
28 4 0.205187 0.354862 0.464022
29 1 0.157278 0.378844 0.237015
30 2 0.255477 0.374253 0.244185
31 3 0.279498 0.346509 0.285616
32 3 0.298501 0.403406 0.210135
33 2 0.0981109 0.349357 0.281099
34 3 0.0177912 0.354497 0.270085
35 3 0.132201 0.325154 0.320386
36 1 0.117151 0.414076 0.181363
37 2 0.181295 0.435583 0.130568
38 4 0.148137 0.419107 0.0777586
39 4 0.267649 0.469521 0.142924
40 2 0.0124876 0.426649 0.17237
41 4 0.984697 0.468368 0.122721
42 4 0.955188 0.395139 0.214021
43 1 0.0927221 0.128844 0.0129853
44 2 0.994527 0.124253 0.0058154
45 3 0.970503 0.0965091 0.964384
46 3 0.951499 0.153406 0.0398652
47 2 0.151887 0.0993578 0.968903
48 3 0.232209 0.104497 0.979915
49 3 0.117799 0.0751542 0.929614
50 1 0.132847 0.164074 0.0686342
51 2 0.068705 0.185583 0.119432
52 4 0.101863 0.169107 0.172242
53 4 0.982351 0.219522 0.107076
54 2 0.237513 0.176649 0.0776296
55 4 0.265303 0.218369 0.127279
56 4 0.294813 0.145138 0.0359785
57 1 0.842722 0.121156 0.262985
58 2 0.744524 0.125747 0.255815
59 3 0.720502 0.153491 0.214384
60 3 0.701499 0.0965939 0.289865
61 2 0.901888 0.150643 0.218902
62 3 0.982209 0.145503 0.229915
63 3 0.867799 0.174846 0.179614
64 1 0.882848 0.0859249 0.318636
65 2 0.818705 0.064417 0.369432
66 4 0.851863 0.080893 0.422242
67 4 0.732351 0.0304785 0.357076
68 2 0.987513 0.0733505 0.32763
69 4 0.0153032 0.0316315 0.377279
70 4 0.0448124 0.104861 0.285979
71 1 0.907278 0.371156 0.487015
72 2 0.0054742 0.375747 0.494185
73 3 0.0294975 0.403491 0.535616
74 3 0.0485011 0.346594 0.460135
75 2 0.848113 0.400643 0.531097
76 3 0.767791 0.395503 0.520085
77 3 0.882201 0.424846 0.570386
78 1 0.867153 0.335926 0.431365
79 2 0.931295 0.314417 0.380568
80 4 0.898137 0.330893 0.327758
81 4 0.017649 0.280478 0.392924
82 2 0.762487 0.323351 0.42237
83 4 0.734697 0.281631 0.372721
84 4 0.705187 0.354861 0.464021
85 1 0.657277 0.378845 0.237013
86 2 0.755457 0.374254 0.244183
87 3 0.779497 0.346509 0.285616
88 3 0.7985 0.403406 0.210135
89 2 0.598123 0.349363 0.281089
90 3 0.517792 0.354497 0.270085
91 3 0.632201 0.325155 0.320386
92 1 0.617162 0.414067 0.181377
93 2 0.681295 0.435583 0.130568
94 4 0.648136 0.419107 0.0777569
95 4 0.767651 0.469522 0.142925
96 2 0.512487 0.42665 0.17237
97 4 0.484696 0.46837 0.12272
98 4 0.455186 0.395137 0.214023
99 1 0.592722 0.128844 0.0129853
100 2 0.494526 0.124253 0.00581535
101 3 0.470502 0.0965091 0.964384
102 3 0.451499 0.153406 0.0398653
103 2 0.651887 0.0993575 0.968903
104 3 0.732209 0.104497 0.979915
105 3 0.617799 0.0751542 0.929614
106 1 0.632847 0.164074 0.0686348
107 2 0.568705 0.185583 0.119432
108 4 0.601863 0.169107 0.172242
109 4 0.482351 0.219521 0.107076
110 2 0.737512 0.176649 0.0776296
111 4 0.765303 0.218369 0.127279
112 4 0.794813 0.145139 0.0359786
113 1 0.342722 0.621156 0.262985
114 2 0.244529 0.625747 0.255816
115 3 0.220503 0.653491 0.214384
116 3 0.201499 0.596594 0.289865
117 2 0.401886 0.650642 0.218904
118 3 0.482209 0.645503 0.229915
119 3 0.367799 0.674846 0.179614
120 1 0.382846 0.585927 0.318633
121 2 0.318705 0.564417 0.369432
122 4 0.351863 0.580893 0.422242
123 4 0.232351 0.530478 0.357076
124 2 0.487513 0.573351 0.32763
125 4 0.515303 0.531631 0.377279
126 4 0.544813 0.604862 0.285978
127 1 0.407278 0.871156 0.487015
128 2 0.50547 0.875747 0.494184
129 3 0.529497 0.903491 0.535616
130 3 0.548501 0.846594 0.460135
131 2 0.348115 0.900641 0.531096
132 3 0.267791 0.895503 0.520085
133 3 0.382201 0.924846 0.570386
134 1 0.367155 0.835927 0.431368
135 2 0.431295 0.814417 0.380568
136 4 0.398137 0.830893 0.327758
137 4 0.51765 0.780478 0.392924
138 2 0.262487 0.823351 0.42237
139 4 0.234697 0.781631 0.372721
140 4 0.205187 0.854862 0.464022
141 1 0.157278 0.878844 0.237015
142 2 0.255478 0.874253 0.244185
143 3 0.279498 0.846509 0.285616
144 3 0.298501 0.903406 0.210135
145 2 0.0981105 0.849356 0.281099
146 3 0.0177911 0.854497 0.270085
147 3 0.132201 0.825154 0.320386
148 1 0.117151 0.914076 0.181363
149 2 0.181295 0.935583 0.130568
150 4 0.148137 0.919107 0.0777587
151 4 0.267649 0.969521 0.142924
152 2 0.0124876 0.926649 0.17237
153 4 0.984697 0.968368 0.122722
154 4 0.955188 0.895139 0.214021
155 1 0.0927221 0.628844 0.0129853
156 2 0.994527 0.624253 0.00581537
157 3 0.970503 0.596509 0.964384
158 3 0.951499 0.653406 0.0398653
159 2 0.151887 0.599358 0.968903
160 3 0.232209 0.604497 0.979915
161 3 0.117799 0.575154 0.929614
162 1 0.132847 0.664074 0.0686344
163 2 0.068705 0.685583 0.119432
164 4 0.101863 0.669107 0.172242
165 4 0.982351 0.719522 0.107076
166 2 0.237513 0.676649 0.0776296
167 4 0.265303 0.718369 0.127279
168 4 0.294813 0.645138 0.0359786
169 1 0.842722 0.621156 0.262985
170 2 0.744524 0.625747 0.255815
171 3 0.720502 0.653491 0.214384
172 3 0.701499 0.596594 0.289865
173 2 0.901889 0.650643 0.218902
174 3 0.982209 0.645503 0.229915
175 3 0.867799 0.674846 0.179614
176 1 0.882848 0.585925 0.318636
177 2 0.818705 0.564417 0.369432
178 4 0.851863 0.580893 0.422242
179 4 0.732351 0.530479 0.357076
180 2 0.987513 0.573351 0.32763
181 4 0.0153031 0.531632 0.377279
182 4 0.0448124 0.604861 0.285979
183 1 0.907278 0.871156 0.487015
184 2 0.00547468 0.875747 0.494185
185 3 0.0294975 0.903491 0.535616
186 3 0.0485011 0.846594 0.460135
187 2 0.848112 0.900643 0.531098
188 3 0.767791 0.895503 0.520085
189 3 0.882201 0.924846 0.570386
190 1 0.867153 0.835925 0.431365
191 2 0.931295 0.814417 0.380568
192 4 0.898137 0.830893 0.327758
193 4 0.017649 0.780478 0.392924
194 2 0.762487 0.823351 0.42237
195 4 0.734697 0.781631 0.372721
196 4 0.705188 0.854861 0.464021
197 1 0.657277 0.878845 0.237013
198 2 0.755456 0.874254 0.244183
199 3 0.779497 0.846509 0.285616
200 3 0.7985 0.903406 0.210135
201 2 0.598123 0.849363 0.281089
202 3 0.517792 0.854497 0.270085
203 3 0.632201 0.825155 0.320386
204 1 0.617162 0.914067 0.181377
205 2 0.681295 0.935583 0.130568
206 4 0.648136 0.919107 0.0777568
207 4 0.767651 0.969522 0.142925
208 2 0.512487 0.92665 0.17237
209 4 0.484696 0.96837 0.12272
210 4 0.455186 0.895137 0.214023
211 1 0.592722 0.628844 0.0129853
212 2 0.494526 0.624253 0.00581535
213 3 0.470502 0.596509 0.964384
214 3 0.451499 0.653406 0.0398653
215 2 0.651887 0.599357 0.968903
216 3 0.732209 0.604497 0.979915
217 3 0.617799 0.575154 0.929614
218 1 0.632847 0.664074 0.0686348
219 2 0.568705 0.685583 0.119432
220 4 0.601863 0.669107 0.172242
221 4 0.482351 0.719521 0.107076
222 2 0.737513 0.676649 0.0776296
223 4 0.765303 0.718369 0.127279
224 4 0.794813 0.645139 0.0359786
225 1 0.342722 0.121156 0.762985
226 2 0.244524 0.125747 0.755815
227 3 0.220502 0.153491 0.714384
228 3 0.201499 0.0965939 0.789865
229 2 0.401889 0.150643 0.718902
230 3 0.482209 0.145503 0.729915
231 3 0.367799 0.174846 0.679614
232 1 0.382848 0.0859246 0.818636
233 2 0.318705 0.064417 0.869432
234 4 0.351863 0.0808925 0.922242
235 4 0.232351 0.0304786 0.857076
236 2 0.487512 0.0733505 0.82763
237 4 0.515303 0.0316316 0.877279
238 4 0.544812 0.104861 0.785979
239 1 0.407242 0.371119 0.986955
240 2 0.505239 0.375736 0.99417
241 3 0.529492 0.403488 0.0356133
242 3 0.548495 0.346593 0.960134
243 2 0.348255 0.400573 0.0309939
244 3 0.26779 0.395502 0.020084
245 3 0.382203 0.424844 0.0703827
246 1 0.367301 0.336066 0.931598
247 2 0.431283 0.314421 0.880571
248 4 0.398102 0.33091 0.827704
249 4 0.517737 0.280448 0.892943
250 2 0.2625 0.323355 0.922374
251 4 0.234669 0.281595 0.872676
252 4 0.205151 0.354888 0.964057
253 1 0.157278 0.378844 0.737015
254 2 0.25548 0.374253 0.744185
255 3 0.279499 0.346509 0.785616
256 3 0.298501 0.403406 0.710135
257 2 0.0981102 0.349356 0.7811
258 3 0.0177915 0.354497 0.770086
259 3 0.132202 0.325154 0.820386
260 1 0.11715 0.414077 0.681362
261 2 0.181295 0.435583 0.630568
262 4 0.148137 0.419107 0.577759
263 4 0.267648 0.469521 0.642924
264 2 0.0124879 0.426649 0.67237
265 4 0.984697 0.468368 0.622722
266 4 0.955188 0.395139 0.714021
267 1 0.0927221 0.128844 0.512985
268 2 0.994528 0.124253 0.505815
269 3 0.970503 0.0965091 0.464384
270 3 0.951499 0.153406 0.539865
271 2 0.151886 0.0993581 0.468904
272 3 0.232209 0.104497 0.479915
273 3 0.117799 0.0751543 0.429614
274 1 0.132846 0.164073 0.568633
275 2 0.068705 0.185583 0.619432
276 4 0.101863 0.169107 0.672242
277 4 0.982351 0.219522 0.607076
278 2 0.237513 0.176649 0.57763
279 4 0.265303 0.218369 0.627279
280 4 0.294813 0.145138 0.535978
281 1 0.842722 0.121156 0.762985
282 2 0.744529 0.125747 0.755816
283 3 0.720503 0.153491 0.714384
284 3 0.701499 0.0965939 0.789865
285 2 0.901886 0.150642 0.718904
286 3 0.982209 0.145503 0.729915
287 3 0.867799 0.174846 0.679614
288 1 0.882846 0.0859268 0.818633
289 2 0.818705 0.064417 0.869432
290 4 0.851863 0.0808931 0.922242
291 4 0.732351 0.0304784 0.857076
292 2 0.987513 0.0733505 0.82763
293 4 0.0153034 0.0316312 0.877279
294 4 0.0448127 0.104862 0.785978
295 1 0.907278 0.371156 0.987014
296 2 0.00546534 0.375747 0.994184
297 3 0.0294971 0.403491 0.0356159
298 3 0.0485009 0.346594 0.960135
299 2 0.848118 0.40064 0.0310933
300 3 0.767791 0.395503 0.0200854
301 3 0.882201 0.424846 0.070386
302 1 0.867158 0.335929 0.931371
303 2 0.931295 0.314417 0.880568
304 4 0.898137 0.330893 0.827757
305 4 0.0176502 0.280478 0.892924
306 2 0.762487 0.323351 0.922371
307 4 0.734696 0.281631 0.87272
308 4 0.705187 0.354862 0.964022
309 1 0.657278 0.378844 0.737015
310 2 0.755471 0.374253 0.744184
311 3 0.779497 0.346509 0.785616
312 3 0.798501 0.403406 0.710135
313 2 0.598114 0.349358 0.781096
314 3 0.517791 0.354497 0.770086
315 3 0.632201 0.325154 0.820386
316 1 0.617154 0.414073 0.681367
317 2 0.681295 0.435583 0.630568
318 4 0.648137 0.419107 0.577758
319 4 0.767649 0.469522 0.642924
320 2 0.512487 0.426649 0.67237
321 4 0.484697 0.468369 0.622721
322 4 0.455187 0.395138 0.714022
323 1 0.592722 0.128844 0.512985
324 2 0.494525 0.124253 0.505815
325 3 0.470502 0.0965091 0.464384
326 3 0.451499 0.153406 0.539865
327 2 0.651888 0.0993574 0.468903
328 3 0.732209 0.104497 0.479915
329 3 0.617799 0.0751542 0.429614
330 1 0.632847 0.164075 0.568635
331 2 0.568705 0.185583 0.619432
332 4 0.601863 0.169107 0.672242
333 4 0.482351 0.219522 0.607076
334 2 0.737513 0.176649 0.57763
335 4 0.765303 0.218369 0.627279
336 4 0.794813 0.145139 0.535979
337 1 0.342722 0.621156 0.762985
338 2 0.244523 0.625747 0.755815
339 3 0.220502 0.653491 0.714384
340 3 0.201499 0.596594 0.789865
341 2 0.401889 0.650643 0.718901
342 3 0.482209 0.645503 0.729915
343 3 0.367799 0.674846 0.679614
344 1 0.382849 0.585924 0.818637
345 2 0.318705 0.564417 0.869432
346 4 0.351863 0.580893 0.922242
347 4 0.232351 0.530479 0.857076
348 2 0.487512 0.573351 0.82763
349 4 0.515303 0.531632 0.877279
350 4 0.544812 0.604861 0.785979
351 1 0.407242 0.871119 0.986956
352 2 0.505239 0.875736 0.99417
353 3 0.529492 0.903488 0.0356133
354 3 0.548495 0.846593 0.960134
355 2 0.348255 0.900573 0.0309938
356 3 0.26779 0.895502 0.020084
357 3 0.382203 0.924844 0.0703827
358 1 0.367301 0.836066 0.931598
359 2 0.431283 0.814421 0.880571
360 4 0.398102 0.83091 0.827704
361 4 0.517737 0.780448 0.892943
362 2 0.2625 0.823355 0.922374
363 4 0.234669 0.781595 0.872676
364 4 0.205151 0.854888 0.964057
365 1 0.157278 0.878844 0.737015
366 2 0.255481 0.874252 0.744185
367 3 0.279499 0.846509 0.785616
368 3 0.298501 0.903406 0.710135
369 2 0.0981096 0.849355 0.7811
370 3 0.0177914 0.854497 0.770086
371 3 0.132202 0.825154 0.820386
372 1 0.11715 0.914077 0.681361
373 2 0.181295 0.935583 0.630568
374 4 0.148137 0.919107 0.577759
375 4 0.267648 0.969521 0.642924
376 2 0.0124879 0.926649 0.67237
377 4 0.984697 0.968368 0.622722
378 4 0.955188 0.895139 0.714021
379 1 0.0927221 0.628844 0.512985
380 2 0.994527 0.624253 0.505815
381 3 0.970503 0.596509 0.464384
382 3 0.951499 0.653406 0.539865
383 2 0.151887 0.599358 0.468903
384 3 0.232209 0.604497 0.479915
385 3 0.117799 0.575154 0.429614
386 1 0.132847 0.664074 0.568634
387 2 0.068705 0.685583 0.619432
388 4 0.101863 0.669107 0.672242
389 4 0.982351 0.719522 0.607076
390 2 0.237513 0.676649 0.57763
391 4 0.265303 0.718369 0.627279
392 4 0.294813 0.645138 0.535979
393 1 0.842722 0.621156 0.762986
394 2 0.74453 0.625747 0.755816
395 3 0.720503 0.653491 0.714384
396 3 0.701499 0.596594 0.789865
397 2 0.901885 0.650641 0.718905
398 3 0.982209 0.645503 0.729915
399 3 0.867799 0.674846 0.679614
400 1 0.882845 0.585927 0.818632
401 2 0.818705 0.564417 0.869432
402 4 0.851863 0.580893 0.922242
403 4 0.73235 0.530478 0.857076
404 2 0.987513 0.573351 0.82763
405 4 0.0153035 0.531631 0.877279
406 4 0.0448128 0.604862 0.785978
407 1 0.907278 0.871156 0.987014
408 2 0.0054639 0.875747 0.994184
409 3 0.029497 0.903491 0.0356158
410 3 0.0485009 0.846594 0.960135
411 2 0.848119 0.900639 0.0310926
412 3 0.767791 0.895503 0.0200854
413 3 0.882201 0.924846 0.070386
414 1 0.867158 0.83593 0.931372
415 2 0.931295 0.814417 0.880568
416 4 0.898137 0.830893 0.827757
417 4 0.0176504 0.780478 0.892924
418 2 0.762487 0.823351 0.922371
419 4 0.734696 0.781631 0.87272
420 4 0.705187 0.854862 0.964022
421 1 0.657278 0.878844 0.737015
422 2 0.755471 0.874253 0.744184
423 3 0.779497 0.846509 0.785616
424 3 0.798501 0.903406 0.710135
425 2 0.598114 0.849358 0.781096
426 3 0.517791 0.854497 0.770086
427 3 0.632201 0.825154 0.820386
428 1 0.617154 0.914073 0.681367
429 2 0.681295 0.935583 0.630568
430 4 0.648137 0.919107 0.577758
431 4 0.767649 0.969522 0.642924
432 2 0.512487 0.926649 0.67237
433 4 0.484697 0.968369 0.622721
434 4 0.455187 0.895138 0.714022
435 1 0.592722 0.628844 0.512985
436 2 0.494526 0.624253 0.505815
437 3 0.470503 0.596509 0.464384
438 3 0.451499 0.653406 0.539865
439 2 0.651887 0.599357 0.468903
440 3 0.732209 0.604497 0.479915
441 3 0.617799 0.575154 0.429614
442 1 0.632847 0.664074 0.568635
443 2 0.568705 0.685583 0.619432
444 4 0.601863 0.669107 0.672242
445 4 0.482351 0.719522 0.607076
446 2 0.737513 0.676649 0.57763
447 4 0.765303 0.718369 0.627279
448 4 0.794813 0.645139 0.535979
ITEM: TIMESTEP
1000
ITEM: NUMBER OF ATOMS
448
ITEM: BOX BOUNDS xy xz yz pp pp pp
-1.6219827389004049e+00 1.4196209157348044e+01 2.8582813309576161e-01
4.7992871890910499e-01 1.2726960394640622e+01 -1.5908017146480899e+00
3.7078129457228748e-01 2.2309129063727774e+01 -6.7910886450279609e-02
ITEM: ATOMS id type xs ys zs
1 1 0.347453 0.13087 0.244827
2 2 0.248009 0.141724 0.236567
3 3 0.210336 0.154027 0.188182
4 3 0.20851 0.118766 0.282999
5 2 0.402687 0.142004 0.200388
6 3 0.493359 0.134445 0.211428
7 3 0.357494 0.170239 0.148907
8 1 0.392573 0.102069 0.306147
9 2 0.327638 0.0886082 0.355355
10 4 0.368213 0.0767196 0.410233
11 4 0.233579 0.0763335 0.349082
12 2 0.49644 0.0887194 0.314099
13 4 0.528894 0.0620065 0.370277
14 4 0.553284 0.0977288 0.269606
15 1 0.39492 0.375493 0.497035
16 2 0.485817 0.360154 0.516674
17 3 0.51169 0.389025 0.568892
18 3 0.537673 0.309142 0.478153
19 2 0.331888 0.425295 0.534202
20 3 0.244964 0.431871 0.509585
21 3 0.359188 0.455008 0.574834
22 1 0.358462 0.336415 0.435608
23 2 0.427966 0.325709 0.389902
24 4 0.402463 0.339171 0.33018
25 4 0.520861 0.31808 0.409713
26 2 0.256139 0.326818 0.420144
27 4 0.227771 0.273953 0.369028
28 4 0.19438 0.379496 0.452559
29 1 0.153766 0.384035 0.256387
30 2 0.245816 0.400064 0.270858
31 3 0.300645 0.375416 0.320621
32 3 0.283765 0.436999 0.229092
33 2 0.0934005 0.344463 0.294561
34 3 0.00847662 0.34308 0.277005
35 3 0.125018 0.315069 0.347921
36 1 0.113921 0.418568 0.192725
37 2 0.176091 0.43606 0.143291
38 4 0.142776 0.434966 0.0856486
39 4 0.265794 0.456836 0.158391
40 2 0.011423 0.423441 0.179642
41 4 0.980962 0.469854 0.124961
42 4 0.951774 0.394058 0.218704
43 1 0.089972 0.133384 0.998625
44 2 0.993683 0.139773 0.984683
45 3 0.958686 0.105204 0.9368
46 3 0.950734 0.174963 0.0274883
47 2 0.149273 0.098997 0.957069
48 3 0.229556 0.0793218 0.976918
49 3 0.116246 0.0879326 0.902169
50 1 0.129533 0.169398 0.0604758
51 2 0.0636068 0.192003 0.108892
52 4 0.100901 0.189455 0.164559
53 4 0.970349 0.204872 0.0960102
54 2 0.231226 0.171587 0.0716154
55 4 0.267362 0.223685 0.124969
56 4 0.289342 0.127863 0.0335981
57 1 0.848943 0.128223 0.249317
58 2 0.754502 0.124371 0.234822
59 3 0.707783 0.173272 0.192138
60 3 0.723191 0.0754071 0.271517
61 2 0.90982 0.172093 0.210324
62 3 0.996968 0.158631 0.232833
63 3 0.875054 0.190534 0.165563
64 1 0.887259 0.0841429 0.30933
65 2 0.819707 0.0636964 0.359428
66 4 0.850016 0.0563524 0.416427
67 4 0.730819 0.0410313 0.343354
68 2 0.984224 0.0626503 0.32356
69 4 0.0135374 0.0080816 0.376378
70 4 0.0482223 0.0930829 0.285044
71 1 0.905952 0.361109 0.506074
72 2 0.00122937 0.350537 0.518477
73 3 0.0522217 0.388953 0.564684
74 3 0.0397687 0.310996 0.477317
75 2 0.849425 0.409178 0.546854
76 3 0.765605 0.416864 0.5291
77 3 0.888182 0.450557 0.594792
78 1 0.860289 0.32483 0.446005
79 2 0.924169 0.297108 0.395789
80 4 0.902972 0.317443 0.338
81 4 0.012018 0.262704 0.410221
82 2 0.759274 0.323796 0.431166
83 4 0.725766 0.281071 0.377194
84 4 0.706213 0.36721 0.472772
85 1 0.667339 0.382796 0.252718
86 2 0.762758 0.380828 0.264535
87 3 0.798094 0.355738 0.317759
88 3 0.798342 0.393294 0.221514
89 2 0.607784 0.361434 0.296827
90 3 0.519626 0.363241 0.281412
91 3 0.637269 0.34539 0.351997
92 1 0.620448 0.417091 0.192415
93 2 0.683264 0.436342 0.138681
94 4 0.647446 0.433952 0.0835344
95 4 0.775822 0.436062 0.151324
96 2 0.522065 0.428454 0.182744
97 4 0.486234 0.465246 0.125605
98 4 0.460741 0.403801 0.223091
99 1 0.585629 0.144113 0.996499
100 2 0.490583 0.154376 0.984941
101 3 0.46327 0.131028 0.935576
102 3 0.444215 0.194169 0.029472
103 2 0.64558 0.102491 0.955992
104 3 0.720072 0.0933784 0.975186
105 3 0.615667 0.0746403 0.900221
106 1 0.625824 0.176044 0.0581878
107 2 0.567124 0.18959 0.107674
108 4 0.601993 0.192131 0.164452
109 4 0.471699 0.196895 0.0962527
110 2 0.733139 0.188995 0.0712956
111 4 0.765778 0.235402 0.121022
112 4 0.787248 0.138725 0.0340662
113 1 0.338013 0.640027 0.24276
114 2 0.242055 0.627488 0.23548
115 3 0.199984 0.653066 0.187773
116 3 0.201257 0.596727 0.277932
117 2 0.394156 0.680891 0.200881
118 3 0.474558 0.682231 0.219126
119 3 0.362965 0.718577 0.146748
120 1 0.382447 0.60237 0.303296
121 2 0.324475 0.588592 0.354881
122 4 0.36625 0.573734 0.410126
123 4 0.230641 0.577799 0.346531
124 2 0.487823 0.584754 0.309672
125 4 0.518802 0.533858 0.358532
126 4 0.543093 0.61019 0.265879
127 1 0.406126 0.872969 0.498607
128 2 0.502011 0.883223 0.506481
129 3 0.529042 0.902037 0.555364
130 3 0.547438 0.865358 0.459863
131 2 0.354284 0.887991 0.545373
132 3 0.272587 0.875711 0.534542
133 3 0.388164 0.90589 0.599591
134 1 0.362512 0.84385 0.435453
135 2 0.422095 0.831252 0.386146
136 4 0.387703 0.823227 0.329406
137 4 0.518337 0.829701 0.394621
138 2 0.259053 0.829613 0.427512
139 4 0.221509 0.795262 0.373969
140 4 0.20634 0.851753 0.47287
141 1 0.148247 0.874149 0.248273
142 2 0.243452 0.878419 0.265317
143 3 0.275049 0.839973 0.311804
144 3 0.292517 0.924502 0.230419
145 2 0.0863924 0.83153 0.283287
146 3 0.000274248 0.835659 0.261332
147 3 0.112401 0.807904 0.32861
148 1 0.111263 0.925561 0.188752
149 2 0.179322 0.94159 0.143113
150 4 0.156751 0.941568 0.0840827
151 4 0.270336 0.960044 0.161547
152 2 0.0103633 0.940724 0.17236
153 4 0.979621 0.996966 0.121544
154 4 0.948021 0.897845 0.207399
155 1 0.101232 0.623932 0.999182
156 2 0.00752926 0.631726 0.982335
157 3 0.976213 0.598977 0.934283
158 3 0.958311 0.671139 0.0217351
159 2 0.164722 0.581705 0.961636
160 3 0.249847 0.588564 0.987038
161 3 0.134903 0.549091 0.920572
162 1 0.137283 0.666261 0.0603249
163 2 0.070421 0.684031 0.108251
164 4 0.0916987 0.682031 0.167624
165 4 0.979519 0.70743 0.0899962
166 2 0.236573 0.684364 0.0771831
167 4 0.26111 0.742786 0.127173
168 4 0.302357 0.641893 0.0419692
169 1 0.839271 0.611839 0.250051
170 2 0.744841 0.606169 0.237041
171 3 0.716864 0.630191 0.190375
172 3 0.696939 0.563499 0.280136
173 2 0.895186 0.644581 0.206783
174 3 0.979962 0.650434 0.226641
175 3 0.867115 0.674431 0.150995
176 1 0.876058 0.575029 0.313547
177 2 0.809743 0.556273 0.359752
178 4 0.835819 0.554809 0.419646
179 4 0.715754 0.540693 0.346474
180 2 0.977418 0.563174 0.323345
181 4 0.0176907 0.511891 0.37409
182 4 0.0370135 0.597855 0.283559
183 1 0.910519 0.863718 0.505395
184 2 0.00595008 0.86084 0.516459
185 3 0.0435132 0.889793 0.567681
186 3 0.0472025 0.825789 0.470429
187 2 0.86022 0.909061 0.54794
188 3 0.780576 0.918327 0.525368
189 3 0.895982 0.952341 0.59816
190 1 0.867403 0.82242 0.444337
191 2 0.927572 0.802406 0.39403
192 4 0.894969 0.804579 0.336772
193 4 0.0221248 0.789027 0.404936
194 2 0.765839 0.826922 0.429795
195 4 0.730237 0.7714 0.379931
196 4 0.715068 0.886513 0.467462
197 1 0.654041 0.872519 0.254185
198 2 0.74945 0.875292 0.268389
199 3 0.794297 0.848755 0.31723
200 3 0.790017 0.908584 0.224147
201 2 0.595818 0.840074 0.293638
202 3 0.508788 0.839924 0.27053
203 3 0.637593 0.808018 0.344375
204 1 0.613058 0.905832 0.190274
205 2 0.672584 0.930451 0.141402
206 4 0.649022 0.93137 0.0813285
207 4 0.763437 0.948247 0.157354
208 2 0.512505 0.917619 0.178055
209 4 0.481743 0.978955 0.128389
210 4 0.44805 0.884239 0.214721
211 1 0.596027 0.621691 0.998465
212 2 0.499209 0.641462 0.987808
213 3 0.457648 0.613328 0.937751
214 3 0.45575 0.687674 0.0243802
215 2 0.651874 0.578766 0.955914
216 3 0.739162 0.568696 0.97251
217 3 0.617068 0.563729 0.902828
218 1 0.637471 0.657184 0.0572977
219 2 0.573457 0.679996 0.109467
220 4 0.608201 0.676033 0.165129
221 4 0.481656 0.696868 0.0974863
222 2 0.740736 0.653777 0.070249
223 4 0.771198 0.70743 0.121866
224 4 0.797503 0.611383 0.0307793
225 1 0.355303 0.116647 0.747027
226 2 0.261501 0.0991052 0.727655
227 3 0.221716 0.131245 0.678398
228 3 0.214688 0.0653585 0.768858
229 2 0.412348 0.168853 0.710548
230 3 0.498449 0.172195 0.736272
231 3 0.385036 0.193582 0.666034
232 1 0.388606 0.0767463 0.808851
233 2 0.319434 0.0797243 0.856334
234 4 0.350162 0.0984167 0.913092
235 4 0.227726 0.0686139 0.840433
236 2 0.489275 0.0826157 0.827153
237 4 0.523837 0.0249619 0.877213
238 4 0.549595 0.13671 0.79687
239 1 0.40694 0.375337 0.00712331
240 2 0.504472 0.381554 0.0126122
241 3 0.536249 0.406729 0.0582111
242 3 0.549012 0.360127 0.966981
243 2 0.35602 0.38913 0.0568462
244 3 0.273219 0.388974 0.0432075
245 3 0.3902 0.41785 0.112253
246 1 0.361338 0.354808 0.946597
247 2 0.422682 0.326783 0.894961
248 4 0.37639 0.308582 0.843277
249 4 0.516894 0.313856 0.901728
250 2 0.257215 0.341835 0.937875
251 4 0.215277 0.326997 0.883647
252 4 0.204262 0.35979 0.984512
253 1 0.139726 0.381174 0.750449
254 2 0.231874 0.388496 0.768111
255 3 0.253326 0.360156 0.814698
256 3 0.284513 0.42473 0.725653
257 2 0.0701369 0.342334 0.783756
258 3 0.985382 0.331496 0.757402
259 3 0.0946135 0.32885 0.828165
260 1 0.108148 0.422563 0.687535
261 2 0.177189 0.441726 0.642951
262 4 0.154646 0.417357 0.585162
263 4 0.27247 0.442563 0.659102
264 2 0.00639714 0.439242 0.671074
265 4 0.983098 0.499034 0.621324
266 4 0.941958 0.383657 0.699312
267 1 0.0937216 0.109617 0.495777
268 2 0.99477 0.113532 0.487865
269 3 0.957686 0.084089 0.439426
270 3 0.957338 0.15302 0.525742
271 2 0.150257 0.0727011 0.453402
272 3 0.228779 0.0649052 0.46674
273 3 0.11055 0.0356419 0.401328
274 1 0.141015 0.146582 0.554346
275 2 0.0817996 0.174655 0.60488
276 4 0.11734 0.175756 0.661889
277 4 0.989455 0.187059 0.594062
278 2 0.245446 0.154477 0.564838
279 4 0.284365 0.202086 0.613939
280 4 0.295572 0.105581 0.524055
281 1 0.845219 0.1142 0.751798
282 2 0.750895 0.110331 0.738254
283 3 0.718242 0.144498 0.694091
284 3 0.702754 0.0680287 0.778128
285 2 0.901579 0.149851 0.709854
286 3 0.983264 0.128637 0.726086
287 3 0.877997 0.169557 0.655933
288 1 0.887394 0.0713658 0.81246
289 2 0.821845 0.0688651 0.861137
290 4 0.84897 0.0805852 0.918614
291 4 0.727605 0.0581751 0.846593
292 2 0.988479 0.0560258 0.823555
293 4 0.0264279 0.0253639 0.88055
294 4 0.0468953 0.0799263 0.782518
295 1 0.908171 0.37073 0.00627958
296 2 0.00394733 0.371067 0.0134876
297 3 0.0418161 0.390406 0.065728
298 3 0.0482919 0.343009 0.969942
299 2 0.851237 0.397399 0.0499485
300 3 0.762312 0.392551 0.0322077
301 3 0.881229 0.436135 0.102916
302 1 0.867457 0.339499 0.943221
303 2 0.935763 0.308878 0.894387
304 4 0.892297 0.298157 0.841581
305 4 0.029609 0.307035 0.902095
306 2 0.769683 0.340687 0.929456
307 4 0.734631 0.302837 0.872633
308 4 0.707994 0.36876 0.970191
309 1 0.648726 0.385296 0.754338
310 2 0.747119 0.387851 0.761361
311 3 0.770339 0.359206 0.805639
312 3 0.798545 0.412728 0.718794
313 2 0.596789 0.369168 0.803533
314 3 0.516593 0.354786 0.79268
315 3 0.640636 0.356941 0.85769
316 1 0.601128 0.407287 0.694579
317 2 0.661401 0.417671 0.643171
318 4 0.621702 0.41369 0.588319
319 4 0.757163 0.425204 0.652052
320 2 0.494887 0.420769 0.689614
321 4 0.457561 0.471927 0.641844
322 4 0.446345 0.388491 0.735056
323 1 0.597314 0.115583 0.500427
324 2 0.500534 0.128925 0.487722
325 3 0.47927 0.0974684 0.442944
326 3 0.451284 0.153783 0.528037
327 2 0.657372 0.079253 0.460393
328 3 0.743796 0.0649144 0.480163
329 3 0.631767 0.0544594 0.411689
330 1 0.642076 0.153276 0.560144
331 2 0.576458 0.17458 0.611167
332 4 0.606267 0.169812 0.667987
333 4 0.483588 0.19169 0.59584
334 2 0.741823 0.155368 0.574815
335 4 0.773792 0.203447 0.627294
336 4 0.800513 0.113871 0.535394
337 1 0.339239 0.616345 0.751683
338 2 0.242701 0.60365 0.739429
339 3 0.214853 0.625837 0.692348
340 3 0.192155 0.578434 0.783408
341 2 0.393068 0.650966 0.71015
342 3 0.475501 0.656545 0.727015
343 3 0.362602 0.676234 0.655964
344 1 0.37951 0.585219 0.81487
345 2 0.320421 0.574237 0.864841
346 4 0.353714 0.572393 0.923185
347 4 0.225967 0.562842 0.851248
348 2 0.484419 0.573806 0.825548
349 4 0.516786 0.523386 0.8771
350 4 0.538558 0.60648 0.783814
351 1 0.418747 0.887437 0.00167206
352 2 0.510106 0.86417 0.0154619
353 3 0.552639 0.88293 0.0695948
354 3 0.561372 0.83018 0.976789
355 2 0.362959 0.930794 0.0432172
356 3 0.27796 0.931881 0.0251024
357 3 0.38767 0.951363 0.10136
358 1 0.376162 0.857454 0.938981
359 2 0.446143 0.824182 0.890776
360 4 0.410455 0.80452 0.837181
361 4 0.537339 0.807484 0.906329
362 2 0.279106 0.851369 0.927904
363 4 0.235812 0.800033 0.873922
364 4 0.219883 0.881421 0.970032
365 1 0.15485 0.867004 0.750799
366 2 0.248388 0.867794 0.763814
367 3 0.279512 0.845484 0.818296
368 3 0.299498 0.892766 0.71962
369 2 0.0962748 0.839597 0.793621
370 3 0.0125009 0.83294 0.768826
371 3 0.129742 0.828524 0.84705
372 1 0.118168 0.903301 0.687182
373 2 0.184077 0.914991 0.638435
374 4 0.151237 0.910944 0.581227
375 4 0.279053 0.92396 0.65258
376 2 0.0204327 0.932876 0.674518
377 4 0.993234 0.990663 0.622693
378 4 0.960096 0.890297 0.711053
379 1 0.0868755 0.622749 0.492195
380 2 0.991683 0.616601 0.481682
381 3 0.937561 0.587811 0.432218
382 3 0.956129 0.648632 0.524396
383 2 0.150138 0.596407 0.45047
384 3 0.227574 0.612091 0.463908
385 3 0.113785 0.553414 0.401488
386 1 0.130465 0.655177 0.553867
387 2 0.0688721 0.672429 0.604467
388 4 0.107007 0.663508 0.659301
389 4 0.975446 0.690531 0.593842
390 2 0.231583 0.670724 0.570407
391 4 0.262841 0.712099 0.625333
392 4 0.286454 0.639918 0.527726
393 1 0.837786 0.631135 0.742012
394 2 0.741945 0.619661 0.732104
395 3 0.698949 0.650164 0.683031
396 3 0.707673 0.582493 0.775116
397 2 0.892972 0.666298 0.698112
398 3 0.972018 0.665564 0.711473
399 3 0.860568 0.690741 0.641036
400 1 0.880037 0.599502 0.802725
401 2 0.823073 0.569255 0.854398
402 4 0.864665 0.571481 0.908911
403 4 0.730284 0.54779 0.843081
404 2 0.984789 0.580471 0.812229
405 4 0.0180662 0.523976 0.858935
406 4 0.0355405 0.619289 0.769157
407 1 0.913384 0.880128 0.00446266
408 2 0.0104011 0.871692 0.0150173
409 3 0.0542034 0.912271 0.0620118
410 3 0.0543621 0.836276 0.976775
411 2 0.855246 0.918298 0.046979
412 3 0.776101 0.914233 0.0305466
413 3 0.882213 0.962921 0.100834
414 1 0.870515 0.848941 0.943076
415 2 0.94293 0.818081 0.891628
416 4 0.90606 0.826888 0.837445
417 4 0.0331383 0.795603 0.906033
418 2 0.777122 0.831528 0.931667
419 4 0.738167 0.789619 0.872466
420 4 0.718701 0.84868 0.975134
421 1 0.659604 0.879933 0.751568
422 2 0.755482 0.886591 0.766497
423 3 0.778674 0.849929 0.820997
424 3 0.799982 0.904284 0.72735
425 2 0.602774 0.847977 0.794225
426 3 0.51928 0.844233 0.778539
427 3 0.639961 0.83251 0.848069
428 1 0.62107 0.913033 0.689872
429 2 0.692503 0.920962 0.639568
430 4 0.65338 0.922559 0.58529
431 4 0.783251 0.936455 0.654235
432 2 0.521282 0.911724 0.676926
433 4 0.486684 0.951671 0.618511
434 4 0.462947 0.886829 0.717708
435 1 0.599352 0.615175 0.500266
436 2 0.505413 0.627287 0.48167
437 3 0.472005 0.60186 0.431893
438 3 0.459578 0.66591 0.522282
439 2 0.659902 0.567202 0.463559
440 3 0.746542 0.554069 0.489854
441 3 0.631688 0.535889 0.419804
442 1 0.636746 0.656025 0.56174
443 2 0.567486 0.673914 0.609128
444 4 0.592467 0.682841 0.667903
445 4 0.475177 0.682007 0.591584
446 2 0.73516 0.668677 0.576632