LAMMPS data file via write_data, version 15 Apr 2020, timestep = 80000

448 atoms
4 atom types

1.1859734954485113e-02 1.3867340265045510e+01 xlo xhi
1.1858058908240006e+00 1.2088994109176397e+01 ylo yhi
-3.0637524254654380e-01 2.2986285600846593e+01 zlo zhi
-1.9329926786053429e+00 -1.2294324340756833e-01 1.6678245697526732e+00 xy xz yz

Masses

1 12.0107
2 14.0067
3 1.00794
4 15.9994

Atoms # full

1 1 1 4.9467692929672707e-01 4.3489709738599291e+00 3.0058633336358795e+00 5.1977662642860034e+00 0 0 0
2 1 2 -6.2125986139039024e-01 3.0628318191248662e+00 3.0665402059966125e+00 4.7799820121523746e+00 0 0 0
3 1 3 4.6056144982334674e-01 2.9359078577765008e+00 2.9510366326887807e+00 3.7052268671138933e+00 0 0 0
4 1 3 4.1073762601744201e-01 2.2170085132514221e+00 2.9873665372981426e+00 5.7069934065604144e+00 0 0 0
5 1 2 -5.3222858123016492e-01 5.3714111175249721e+00 3.0204685099397874e+00 4.3674938991628851e+00 0 0 0
6 1 3 4.0082306835533593e-01 6.5032513894808668e+00 2.9133727722958480e+00 4.9277340104985381e+00 0 0 0
7 1 3 4.2625752392942856e-01 5.1605754464720368e+00 3.0940859189888945e+00 3.1811590416704538e+00 0 0 0
8 1 1 -1.1518816552365053e-01 4.6456612712543626e+00 2.9659786953897482e+00 6.6846679297773361e+00 0 0 0
9 1 2 4.1682935017526290e-01 3.5566237214430410e+00 3.1809639011686528e+00 7.6673177247158302e+00 0 0 0
10 1 4 -3.7035736293367671e-01 3.9704342695257040e+00 3.2941916464659204e+00 8.8820028379799894e+00 0 0 0
11 1 4 -4.6172112000286392e-01 2.3151631322404849e+00 3.3024243418550148e+00 7.2231135589354185e+00 0 0 0
12 1 2 4.2012495882285578e-01 5.9767541999254288e+00 2.9745987523184483e+00 7.1563066975852498e+00 0 0 0
13 1 4 -4.4834123426578987e-01 6.1311837276246299e+00 3.1270317216577648e+00 8.5054251301022337e+00 0 0 0
14 1 4 -4.7008849570333711e-01 7.0349724671160567e+00 2.9250932002392123e+00 6.3503202569323802e+00 0 0 0
15 1 1 4.7779568255098681e-01 5.5229957790421702e+00 6.3603102162989744e+00 1.1643347923832987e+01 0 0 0
16 1 2 -6.0654676812894670e-01 6.8692777875751965e+00 6.2683547777138244e+00 1.1723495385324631e+01 0 0 0
17 1 3 4.6722166818105854e-01 7.3422689298853756e+00 6.3258766838303711e+00 1.2699370967749463e+01 0 0 0
18 1 3 4.1865988818747479e-01 7.5068706202779749e+00 6.0718061330744053e+00 1.0580191733413898e+01 0 0 0
19 1 2 -4.9378115819972185e-01 4.6677348762889572e+00 6.5159068593161953e+00 1.2697301526432746e+01 0 0 0
20 1 3 4.1144767801265919e-01 3.4863586046877519e+00 6.5372521439891225e+00 1.2367512063303298e+01 0 0 0
21 1 3 4.2196506981722687e-01 5.0615957062136037e+00 6.6057038935009542e+00 1.3964262245568749e+01 0 0 0
22 1 1 -1.1509504719085140e-01 4.9228223389477161e+00 6.2167949657990240e+00 1.0285708695070179e+01 0 0 0
23 1 2 4.2279830951183206e-01 5.7451056002354282e+00 6.0895347944831490e+00 9.1526426107602621e+00 0 0 0
24 1 4 -3.8224253118046791e-01 5.0704386116147893e+00 6.0615241782750768e+00 8.1136858992655867e+00 0 0 0
25 1 4 -4.9447161091928488e-01 7.1369745978426096e+00 5.9944749818338012e+00 9.1381008614730703e+00 0 0 0
26 1 2 4.5182365047892808e-01 3.4059471560065746e+00 6.1774528802628126e+00 1.0074195481262970e+01 0 0 0
27 1 4 -3.7819510793941080e-01 2.9908753454055459e+00 5.9342406857344940e+00 8.8806923399693058e+00 0 0 0
28 1 4 -4.7630344659486157e-01 2.6004164272043040e+00 6.2727865150557518e+00 1.1082643978211808e+01 0 0 0
29 1 1 5.1934574895808239e-01 1.5624804397523573e+00 5.7701923910020794e+00 5.7343839376850854e+00 0 0 0
30 1 2 -6.2500811666064393e-01 2.9304388133918193e+00 5.7072374974686593e+00 6.0043542259783980e+00 0 0 0
31 1 3 4.4230807801768535e-01 3.2565368577008966e+00 5.6632891572270641e+00 7.0742606634918079e+00 0 0 0
32 1 3 4.2840805015289313e-01 3.6308293867777341e+00 5.5113613920227875e+00 5.1118685715470322e+00 0 0 0
33 1 2 -5.1648576235031840e-01 6.2148198657657860e-01 5.9516194046376327e+00 6.6357814041460372e+00 0 0 0
34 1 3 3.9824250131863309e-01 -6.2301678425964313e-01 5.9054824062581721e+00 6.1968140853892901e+00 0 0 0
35 1 3 4.4260571035514845e-01 9.3642697522368923e-01 6.1540643094859773e+00 7.7710398603116193e+00 0 0 0
36 1 1 -1.3001640616634544e-01 1.0993707112617699e+00 5.6225657945115985e+00 4.3414529219641356e+00 0 0 0
37 1 2 4.5957992698061789e-01 2.1740034963808221e+00 5.5382661704235163e+00 3.2180703768084835e+00 0 0 0
38 1 4 -4.0972513212162504e-01 1.7875554679058376e+00 5.5002143972993460e+00 2.0140514834623735e+00 0 0 0
39 1 4 -4.6972930509155897e-01 3.4236570614998496e+00 5.4281173469537327e+00 3.5121736732077125e+00 0 0 0
40 1 2 4.1780335817198017e-01 -2.2514234369121239e-01 5.6013865534336764e+00 3.9715254871933441e+00 0 0 0
41 1 4 -4.6425134911739896e-01 -5.5415179276410753e-01 5.6371350324676586e+00 2.6305541199839775e+00 1 0 0
42 1 4 -4.6437434935797273e-01 1.2628073267575768e+01 5.8261876824474799e+00 4.8285472758707577e+00 0 0 0
43 1 1 5.1711275430288728e-01 4.8593936755482497e-01 4.1004377933718512e+00 2.2734935252749615e+01 0 0 -1
44 1 2 -6.4194412239973697e-01 1.3006075188143276e+01 4.1667713835317857e+00 2.2622472315838056e+01 0 0 -1
45 1 3 4.5775918708977553e-01 1.2501042862405550e+01 4.2110865317821871e+00 2.1735137438069760e+01 0 0 0
46 1 3 4.2140436052050234e-01 1.2421281500763373e+01 2.6840227850031013e+00 4.1053844306545118e-01 0 0 0
47 1 2 -5.3413057865449731e-01 1.2279838783193373e+00 3.9550046250560600e+00 2.1639754567807429e+01 0 0 0
48 1 3 4.3060006660307709e-01 2.3879067738310535e+00 3.9634357499214650e+00 2.1898425324726716e+01 0 0 0
49 1 3 4.3283454465157867e-01 7.3508105337977125e-01 3.8536081328579437e+00 2.0441018149519085e+01 0 0 0
50 1 1 -1.3157184376006359e-01 1.3038626293507460e+00 2.5551349867378730e+00 7.7568975617299030e-01 0 0 0
51 1 2 4.1897537478905666e-01 4.4832546211159408e-01 2.5711058378335552e+00 1.9286940282788647e+00 0 0 0
52 1 4 -4.2701346944943430e-01 9.6159974365986600e-01 2.8264338355104659e+00 3.0144276136109696e+00 0 0 0
53 1 4 -5.1970624009427280e-01 1.2868862958436706e+01 2.3909931434664484e+00 1.8067858218053701e+00 0 0 0
54 1 2 4.2873814124472098e-01 2.7678621328053610e+00 2.7542717309119578e+00 8.7863427941974992e-01 0 0 0
55 1 4 -4.4788187346507802e-01 3.2890428877520521e+00 2.8782833289142911e+00 2.0503859464424714e+00 0 0 0
56 1 4 -4.8999383530974028e-01 3.4902236223063530e+00 2.6903969993537848e+00 -2.2001004059870150e-01 0 0 0
57 1 1 4.8968423750108070e-01 1.1132904956357113e+01 3.0506387538874562e+00 5.2088078264965079e+00 0 0 0
58 1 2 -5.5004091023184842e-01 9.8863468415271605e+00 3.0552534551532307e+00 4.7652343821789485e+00 0 0 0
59 1 3 4.4105100029056998e-01 9.6219744315233307e+00 3.0173412462331282e+00 3.5444064722377537e+00 0 0 0
60 1 3 3.9103566755009356e-01 9.1192756487950941e+00 3.2170050352729929e+00 5.7750361708476996e+00 0 0 0
61 1 2 -5.3177504650210750e-01 1.2110722564761467e+01 3.0156471043538637e+00 4.2864078281724458e+00 0 0 0
62 1 3 3.9968240994658311e-01 1.3200897269989321e+01 2.9956725406164040e+00 4.7065169967740630e+00 0 0 0
63 1 3 4.3025353783702219e-01 1.2073413730768149e+01 2.9466323326873560e+00 2.9992798564016812e+00 0 0 0
64 1 1 -1.2844543063655223e-01 1.1539995850005123e+01 3.1367310832796367e+00 6.6416491236509287e+00 0 0 0
65 1 2 4.1137212790652478e-01 1.0480927561524085e+01 3.2329580833501703e+00 7.7125322538823102e+00 0 0 0
66 1 4 -3.8523197364706535e-01 1.0896509100606186e+01 3.2340465930448863e+00 8.9376229368080882e+00 0 0 0
67 1 4 -4.4064862386785697e-01 9.2202353075738763e+00 3.2550835198479491e+00 7.3327112113358988e+00 0 0 0
68 1 2 4.3012543527594960e-01 1.2866647768688145e+01 3.2640646755114404e+00 7.0721393865725295e+00 0 0 0
69 1 4 -4.5728586341159705e-01 1.3201029086749777e+01 3.3326848752347664e+00 8.3892250020929833e+00 -1 0 0
70 1 4 -4.7261615508839461e-01 -2.2655980203846238e-02 3.1753530918405031e+00 6.1573533256531574e+00 0 0 0
71 1 1 5.0289827774533813e-01 1.2346571922981802e+01 6.1064746759741908e+00 1.1540671074630886e+01 0 0 0
72 1 2 -5.8450824772236376e-01 -1.9335931548125135e-01 6.3730864157805067e+00 1.1608891667650107e+01 0 0 0
73 1 3 4.3345373044254593e-01 3.4797009757292352e-01 6.3075143525290942e+00 1.2612411706960238e+01 0 0 0
74 1 3 4.1328985187525169e-01 4.4193491678007812e-01 6.5987488846849187e+00 1.0530140156012640e+01 0 0 0
75 1 2 -5.4179833236991370e-01 1.1622478652430292e+01 5.9392738910760627e+00 1.2680792797598881e+01 0 0 0
76 1 3 4.3477810804818484e-01 1.0500174249124072e+01 5.6642592222483845e+00 1.2432652849317948e+01 0 0 0
77 1 3 4.3188089251564121e-01 1.2059804246295830e+01 6.2333337014868748e+00 1.3825784090679987e+01 0 0 0
78 1 1 -1.2922019978103408e-01 1.1712288633612877e+01 6.1396438892129686e+00 1.0197236193794120e+01 0 0 0
79 1 2 4.4274482634062157e-01 1.2525955692499064e+01 6.0733344135103238e+00 9.0114637741359847e+00 0 0 0
80 1 4 -4.3192468194252276e-01 1.1931473414882419e+01 5.9041605309970739e+00 7.9529209634754885e+00 0 0 0
81 1 4 -5.0345569452591021e-01 8.7153604978531612e-02 6.1675883529614408e+00 9.1102077943551549e+00 0 0 0
82 1 2 4.2833811603398614e-01 1.0227554308120343e+01 6.0531745360629774e+00 1.0139104641161399e+01 0 0 0
83 1 4 -4.1033805785144117e-01 9.6366495517681727e+00 6.0140410632230150e+00 8.9652831679509237e+00 0 0 0
84 1 4 -4.5148370137955440e-01 9.5172878574508157e+00 5.9686348893087589e+00 1.1237890227620284e+01 0 0 0
85 1 1 4.9748836200120983e-01 8.5815456578897180e+00 5.8624230866773424e+00 5.7910832599734059e+00 0 0 0
86 1 2 -6.1811867075917881e-01 9.8755341169726982e+00 5.8123894480553249e+00 6.2213006316848194e+00 0 0 0
87 1 3 4.5440725313414865e-01 9.9973625096805119e+00 5.8895847596411786e+00 7.3423104319823889e+00 0 0 0
88 1 3 4.2258388999847407e-01 1.0655609357914491e+01 5.5956177373608229e+00 5.3586135557591170e+00 0 0 0
89 1 2 -5.3471185807499300e-01 7.5898433536473151e+00 6.0859565572291139e+00 6.6746284292436950e+00 0 0 0
90 1 3 3.9709343463432861e-01 6.4074629283449402e+00 6.0886319784722360e+00 6.1476358419053359e+00 0 0 0
91 1 3 4.5248588921310218e-01 7.8929152499508417e+00 6.2901888055402315e+00 7.7463801907057874e+00 0 0 0
92 1 1 -1.2287162266861773e-01 8.2045121172685729e+00 5.7256833045578706e+00 4.3739468173419747e+00 0 0 0
93 1 2 4.2852657364241503e-01 9.2824818236474620e+00 5.5939263623041082e+00 3.3243631309476807e+00 0 0 0
94 1 4 -3.8927096719549709e-01 8.8836821131298542e+00 5.5584397291155643e+00 2.0940610391870957e+00 0 0 0
95 1 4 -4.3491326884197679e-01 1.0524806811852095e+01 5.5476075341856133e+00 3.7146399385198601e+00 0 0 0
96 1 2 4.3639788932665330e-01 6.8521340156959036e+00 5.5970943628667502e+00 3.9665923526438744e+00 0 0 0
97 1 4 -4.8936837316901649e-01 6.5742003283803232e+00 5.3009081930090041e+00 2.6680739114976695e+00 0 0 0
98 1 4 -4.9361051437161707e-01 5.8287839114376476e+00 5.7630948206102479e+00 4.8080994266419532e+00 0 0 0
99 1 1 5.0971271405080198e-01 7.3485336174245566e+00 4.0960041887333851e+00 2.2825754088386784e+01 0 0 -1
100 1 2 -6.2826040210848788e-01 6.0245244578510428e+00 3.9513334955807893e+00 2.2826547380247536e+01 0 0 -1
101 1 3 4.3809267845917788e-01 5.6632221867433801e+00 3.7724971570004575e+00 2.1854072063831225e+01 0 0 0
102 1 3 4.2446411873019868e-01 5.4427893287773399e+00 2.5994143722807035e+00 5.9387124651208989e-01 0 0 0
103 1 2 -5.1124536352480487e-01 8.0798308460786750e+00 3.9801583058427195e+00 2.1738008042897341e+01 0 0 0
104 1 3 4.1967603495096933e-01 9.3585134502850078e+00 4.1199210695683366e+00 2.1963420339290188e+01 0 0 0
105 1 3 4.2490808236709399e-01 7.5207377502554147e+00 3.8049426380779292e+00 2.0613895126973883e+01 0 0 0
106 1 1 -1.3421128559423517e-01 8.1654590643419755e+00 2.6738557838582739e+00 8.7010131666645418e-01 0 0 0
107 1 2 4.4533652044216204e-01 7.3406212669324358e+00 2.7350602446788344e+00 2.0319157292091194e+00 0 0 0
108 1 4 -4.4866362146589844e-01 7.8581963588499919e+00 2.9802506488133833e+00 3.1207418940196772e+00 0 0 0
109 1 4 -5.1396330821032643e-01 5.9461707968917272e+00 2.4209429894476240e+00 1.9884838127601601e+00 0 0 0
110 1 2 4.2584024410062177e-01 9.6036022876825147e+00 2.7913685309901668e+00 1.0048725920909261e+00 0 0 0
111 1 4 -4.6516278606053824e-01 1.0246535121839624e+01 3.0316757887645651e+00 2.1155860850180370e+00 0 0 0
112 1 4 -4.9424092843769896e-01 1.0331975559361716e+01 2.7273528579614346e+00 -1.3271389010040510e-01 0 0 0
113 1 1 5.2343829318014767e-01 4.1241810244988359e+00 8.3182578639590510e+00 4.8412815679823611e+00 0 0 0
114 1 2 -6.4470174556044602e-01 2.8059651451698477e+00 8.4076462932976952e+00 4.7732272488194312e+00 0 0 0
115 1 3 4.7198233211857643e-01 2.3566907943898090e+00 8.3018476706681952e+00 3.8727420572232480e+00 0 0 0
116 1 3 4.3162605793543612e-01 2.1215503349606357e+00 8.5213535348377967e+00 5.8661298846929375e+00 0 0 0
117 1 2 -5.4581186928504943e-01 4.9465823469133792e+00 8.0999303028092555e+00 3.7495637014870065e+00 0 0 0
118 1 3 4.4395627347908007e-01 6.0334897886748120e+00 8.1396436931185558e+00 3.9658332286218689e+00 0 0 0
119 1 3 4.4131858701326648e-01 4.3785578078181215e+00 8.0299522033227255e+00 2.5710532431419439e+00 0 0 0
120 1 1 -1.2218182310841491e-01 4.7991156431663544e+00 8.4076886669063171e+00 6.1707045525403057e+00 0 0 0
121 1 2 4.1437382251436006e-01 4.0114124083842544e+00 8.4212395788631689e+00 7.3300754560229819e+00 0 0 0
122 1 4 -4.1557010600397287e-01 4.6000964294187234e+00 8.6871633308511811e+00 8.3819299021574629e+00 0 0 0
123 1 4 -5.1023243262099860e-01 2.5757181577911110e+00 8.0626873518606228e+00 7.2116188381810460e+00 0 0 0
124 1 2 4.2154831647623126e-01 6.3108811851791708e+00 8.5091053546226210e+00 6.2489877472783988e+00 0 0 0
125 1 4 -4.5046010748276588e-01 6.8408301600013122e+00 8.7509782965798486e+00 7.4096942413178635e+00 0 0 0
126 1 4 -4.6553527290165864e-01 7.0423597823703563e+00 8.4171993550462112e+00 5.1983461153558350e+00 0 0 0
127 1 1 5.3327869342062029e-01 2.9957789197479259e+00 1.1707098797456570e+01 1.2009569983649198e+01 0 0 0
128 1 2 -6.3198605672370478e-01 4.2987879561570486e+00 1.1689996137643778e+01 1.2381057471635639e+01 0 0 0
129 1 3 4.5048665152118816e-01 4.4569415553223530e+00 1.1871156543136689e+01 1.3468471603954290e+01 0 0 0
130 1 3 4.3095374491177213e-01 5.0250307011602064e+00 1.1528635294908906e+01 1.1482796482905812e+01 0 0 0
131 1 2 -6.2196948508094319e-01 1.9715116138217108e+00 1.1817073409379834e+01 1.2830815501057053e+01 0 0 0
132 1 3 4.2026763289059538e-01 8.6588118375936929e-01 1.1905468963692670e+01 1.2368740114835395e+01 0 0 0
133 1 3 4.5859139477371197e-01 2.2518810210097233e+00 1.1987580879434692e+01 1.3910729942874717e+01 0 0 0
134 1 1 -1.4528809180605751e-01 2.6577150091160275e+00 1.1536258419472031e+01 1.0562793117288235e+01 0 0 0
135 1 2 3.9613233524219971e-01 3.7268605526135548e+00 1.1292370888453004e+01 9.5545081337939610e+00 0 0 0
136 1 4 -3.8661810766121019e-01 3.3431855735640981e+00 1.1261507182259052e+01 8.3088975923080852e+00 0 0 0
137 1 4 -4.4893921516638319e-01 4.9733432908519015e+00 1.1123659818612616e+01 9.9269701675136357e+00 0 0 0
138 1 2 4.2972208131783074e-01 1.3314617909372275e+00 1.1694040800642583e+01 1.0088789994129376e+01 0 0 0
139 1 4 -4.6829997495311509e-01 1.0442457333590962e+00 1.1565089142862057e+01 8.7589500103858242e+00 0 0 0
140 1 4 -4.7889560159900657e-01 3.4239106598299301e-01 1.1954485710829172e+01 1.0919149642517324e+01 0 0 0
141 1 1 4.9070787482388156e-01 -1.4908526700176636e-01 1.1286470688317817e+01 6.0749021736495123e+00 0 0 0
142 1 2 -6.1971816640959920e-01 1.1900989622253879e+00 1.1085786153663442e+01 6.1708684397313034e+00 0 0 0
143 1 3 4.5766002829772984e-01 1.5976201893214292e+00 1.1173598224928007e+01 7.1330854487972326e+00 0 0 0
144 1 3 4.2386858157431850e-01 1.8395611332882391e+00 1.1038909521623104e+01 5.0779088786194215e+00 0 0 0
145 1 2 -5.4185761922989506e-01 -8.7705408968610687e-01 1.1548536043960674e+01 7.1924461402520903e+00 0 0 0
146 1 3 4.2450791759141426e-01 1.1900544601449397e+01 1.1682718292289010e+01 6.8711380630353620e+00 -1 0 0
147 1 3 4.3850740726021759e-01 -4.5510589336795981e-01 1.1610187272148828e+01 8.4209358317990972e+00 0 0 0
148 1 1 -1.5344954765527713e-01 -7.5488346182606159e-01 1.1307716639546058e+01 4.7432584713943440e+00 0 0 0
149 1 2 4.4799046664180120e-01 6.8997257211537530e-02 1.1310603004060535e+01 3.5900380990504051e+00 0 0 0
150 1 4 -4.2260212644068079e-01 -5.1732347375983412e-01 1.1027852543347851e+01 2.5354827353056830e+00 0 0 0
151 1 4 -5.1159119643121431e-01 1.4716847550406154e+00 1.1452997915720086e+01 3.6606854313009318e+00 0 0 0
152 1 2 4.4392064037401330e-01 1.1585965552809428e+01 1.1282502447520958e+01 4.5764904589771334e+00 -1 0 0
153 1 4 -4.5861948773001060e-01 1.1008747142450211e+01 1.1153888997576264e+01 3.4608439446110753e+00 0 0 0
154 1 4 -5.1087801879701100e-01 1.0858720182418132e+01 1.1421033614083239e+01 5.6784053361678959e+00 0 0 0
155 1 1 4.7972778456713183e-01 8.1840706851179923e-01 9.4707089698234199e+00 2.2267711977957251e+01 0 0 -1
156 1 2 -5.6205894888945707e-01 -4.9320308767110399e-01 9.5897332998097689e+00 2.1886626350547683e+01 1 0 -1
157 1 3 4.5529854424174715e-01 -8.1922937580055133e-01 9.6765190899531461e+00 2.0782097857390884e+01 1 0 0
158 1 3 3.9989144186203029e-01 -1.1991785136732676e+00 9.6144873246984943e+00 2.2858731400803229e+01 1 0 -1
159 1 2 -4.7164094842881016e-01 1.7532516037840471e+00 9.2967449422178952e+00 2.1347792551095178e+01 0 0 0
160 1 3 3.7855265061454829e-01 2.8801864983823058e+00 9.3222198047265579e+00 2.1981165024907842e+01 0 0 0
161 1 3 4.3249169342802801e-01 1.6263227203929400e+00 9.3008841628242571e+00 2.0047518384762881e+01 0 0 0
162 1 1 -1.3676115977910003e-01 1.3149370877386384e+00 7.9919730729960454e+00 4.1633130803331164e-01 0 0 0
163 1 2 4.6363101059859491e-01 2.3845409947719176e-01 8.1442731938625208e+00 1.4711117519630401e+00 0 0 0
164 1 4 -3.8001677804083411e-01 6.4645292348557648e-01 8.2846374587285911e+00 2.6704185978499209e+00 0 0 0
165 1 4 -4.6729789598003774e-01 -9.8875720707426495e-01 8.2058397126408238e+00 1.1256972732784565e+00 1 0 0
166 1 2 4.2198289326285937e-01 2.6297379552213118e+00 7.9932100829346302e+00 8.7694619117699446e-01 0 0 0
167 1 4 -4.6385817838954985e-01 2.9451422070826059e+00 8.1890218745898729e+00 2.1789050879166898e+00 0 0 0
168 1 4 -4.6147008175080023e-01 3.6634351230184579e+00 7.8384382565962873e+00 4.2638066362243432e-02 0 0 0
169 1 1 4.9071667252118284e-01 1.1080203629040582e+01 8.6111619563468498e+00 4.9537318188989836e+00 0 0 0
170 1 2 -5.4429411177611620e-01 9.7502098951762743e+00 8.9415473564393686e+00 4.9086686091864014e+00 0 0 0
171 1 3 4.5447298143965859e-01 9.2142773866007541e+00 8.8728174494315617e+00 3.9688405378659661e+00 0 0 0
172 1 3 4.0938895677032289e-01 9.1286583260959251e+00 9.1099880148169774e+00 6.0472789626429613e+00 0 0 0
173 1 2 -5.2505483067608139e-01 1.1797279957940059e+01 8.4100916619313288e+00 3.8530903473804177e+00 0 0 0
174 1 3 4.3399225946705328e-01 -9.1114575663535913e-01 8.3410159006586113e+00 4.0302089827134546e+00 1 0 0
175 1 3 4.2781206223883700e-01 1.1165046235743780e+01 8.3764844505503930e+00 2.6947129616355996e+00 0 0 0
176 1 1 -1.2901069633139720e-01 1.1748857074096689e+01 8.5769578101433233e+00 6.2856271798377703e+00 0 0 0
177 1 2 4.1656804771674943e-01 1.0902089545808169e+01 8.5804544873850119e+00 7.4050943308547357e+00 0 0 0
178 1 4 -4.4705364279798004e-01 1.1438922277743355e+01 8.7039589946322966e+00 8.5325215213995254e+00 0 0 0
179 1 4 -5.1523372418508262e-01 9.4671713020382224e+00 8.3248665919270461e+00 7.2427258329370048e+00 0 0 0
180 1 2 4.1981022385298833e-01 -6.1919462577560791e-01 8.5606304855847579e+00 6.3936445095033747e+00 1 0 0
181 1 4 -4.6454513418840093e-01 -1.1490939805922806e-02 8.7674255959019600e+00 7.5426486143228457e+00 0 0 0
182 1 4 -4.7517802290719441e-01 7.8889362475251440e-02 8.3963281070907207e+00 5.3006095190293161e+00 0 0 0
183 1 1 4.9624155892025024e-01 9.9933958848186233e+00 1.1655771616898413e+01 1.2088166415726647e+01 0 0 0
184 1 2 -6.2146635093960956e-01 1.1268383967788791e+01 1.1472248842610000e+01 1.2485430342938997e+01 -1 0 0
185 1 3 4.5967774904653358e-01 1.1419390630100770e+01 1.1477949696370821e+01 1.3509753395801422e+01 -1 0 0
186 1 3 4.1018591922757774e-01 1.2096188915780697e+01 1.1429570466279799e+01 1.1521429151033113e+01 -1 0 0
187 1 2 -5.1227328176944220e-01 8.9627599319112843e+00 1.1832821713547698e+01 1.2916983290278134e+01 0 0 0
188 1 3 4.0384635043294170e-01 7.8324645052284003e+00 1.2040786875400283e+01 1.2441318102325464e+01 0 0 0
189 1 3 4.2143215618890756e-01 9.1564131628578913e+00 1.1740899676611779e+01 1.4200386682608722e+01 0 0 0
190 1 1 -1.3588023758528356e-01 9.6799430793743770e+00 1.1578629068100017e+01 1.0646139476871117e+01 0 0 0
191 1 2 4.3851337976835908e-01 1.0799063849910155e+01 1.1357654873344302e+01 9.5898825637054728e+00 0 0 0
192 1 4 -3.9337616813399551e-01 1.0402847102221353e+01 1.1307398465010642e+01 8.3947238482996589e+00 0 0 0
193 1 4 -4.7174943096952660e-01 1.2052047058807439e+01 1.1389927317239511e+01 9.9451283459801783e+00 -1 0 0
194 1 2 4.2094039801102723e-01 8.3672753279604191e+00 1.1615175569532077e+01 1.0162029145018579e+01 0 0 0
195 1 4 -4.8402467741428212e-01 8.0585528038549956e+00 1.1440315690691715e+01 8.8363946670414908e+00 0 0 0
196 1 4 -4.7194416602176475e-01 7.3595887375476883e+00 1.1843674323471276e+01 1.1002876453060447e+01 0 0 0
197 1 1 5.2094392530373568e-01 6.8451285952277807e+00 1.1424106622113388e+01 6.1319166754156482e+00 0 0 0
198 1 2 -6.2369348700145744e-01 8.2103435346917788e+00 1.1448302012263582e+01 6.1953850541812745e+00 0 0 0
199 1 3 4.4124141363579633e-01 8.6801604782738497e+00 1.1318002370757085e+01 7.1475879951929704e+00 0 0 0
200 1 3 4.3104043171924905e-01 8.9822483257685573e+00 1.1436245103884822e+01 5.1413880791585260e+00 0 0 0
201 1 2 -5.4639753181887218e-01 6.0586457294260452e+00 1.1495998598537255e+01 7.2362597568603579e+00 0 0 0
202 1 3 4.4226866843308277e-01 4.9402323887255211e+00 1.1430607268085712e+01 7.1294563818557721e+00 0 0 0
203 1 3 4.2550421944287842e-01 6.6597120558320411e+00 1.1574503022269020e+01 8.3909005586816843e+00 0 0 0
204 1 1 -1.3481410529271365e-01 6.2188340190820925e+00 1.1287171126031193e+01 4.8124259979299486e+00 0 0 0
205 1 2 4.3995210023126685e-01 7.0541434025735992e+00 1.1161189228330329e+01 3.6814400696320826e+00 0 0 0
206 1 4 -4.2208903607801074e-01 6.4627869812828109e+00 1.1082993298566308e+01 2.5909881955851959e+00 0 0 0
207 1 4 -5.0262454976310711e-01 8.4695904266596145e+00 1.1088444702048736e+01 3.7637164677970434e+00 0 0 0
208 1 2 4.2866819536261414e-01 4.6972142791344718e+00 1.1159797588601332e+01 4.7293628603401201e+00 0 0 0
209 1 4 -4.5638860706783257e-01 4.0585815633712201e+00 1.0981592933461478e+01 3.5930646237781461e+00 0 0 0
210 1 4 -4.7233300769553560e-01 4.0132476124283212e+00 1.1210160069254577e+01 5.8187710853841264e+00 0 0 0
211 1 1 4.6775057945263993e-01 7.6832538943252757e+00 9.5524709379374215e+00 2.2352220307617408e+01 0 0 -1
212 1 2 -6.3767236595705512e-01 6.3813285201394363e+00 9.6137881104801153e+00 2.1888278363433145e+01 0 0 -1
213 1 3 4.4349641903108383e-01 6.3916816682882907e+00 9.4725837407889912e+00 2.0746947885978521e+01 0 0 0
214 1 3 4.5972333433856255e-01 5.7299006401895269e+00 9.6665157850580812e+00 2.2698636714056214e+01 0 0 -1
215 1 2 -5.1363094550441746e-01 8.7031608192474295e+00 9.3831567267347751e+00 2.1487241176159024e+01 0 0 0
216 1 3 4.0583653940024006e-01 9.8692397272706316e+00 9.2468674479183761e+00 2.1982252912957332e+01 0 0 0
217 1 3 4.2590511269310871e-01 8.3934315033220859e+00 9.3504477632154561e+00 2.0307458595794472e+01 0 0 0
218 1 1 -1.1563784651494778e-01 8.1473935819444989e+00 8.0091363921912144e+00 5.0087816966279763e-01 0 0 0
219 1 2 4.0301054074668785e-01 7.0252550246793692e+00 8.1934297383113321e+00 1.5064184179733693e+00 0 0 0
220 1 4 -3.5800873209213430e-01 7.3633925760868513e+00 8.4753794967046687e+00 2.7405709834923186e+00 0 0 0
221 1 4 -4.3953293296239093e-01 5.8227054098506930e+00 8.2159836450601667e+00 1.0488513883750776e+00 0 0 0
222 1 2 4.2988124697287339e-01 9.4497334803636139e+00 8.0342874115255327e+00 1.0130740039332640e+00 0 0 0
223 1 4 -4.7686531010543437e-01 9.7110641547420560e+00 8.3248525995181488e+00 2.3190241010129884e+00 0 0 0
224 1 4 -4.7440511652823092e-01 1.0407621555404404e+01 7.7269177697674003e+00 1.5013150072035486e-01 0 0 0
225 1 1 4.9242527288321847e-01 4.2025306124171324e+00 3.6959609119410883e+00 1.6844619165023474e+01 0 0 0
226 1 2 -5.7679475136994884e-01 2.8835069789543617e+00 3.6597664266524479e+00 1.6424671012476654e+01 0 0 0
227 1 3 4.3018375266857917e-01 2.6212852555448709e+00 3.3770612638362607e+00 1.5260396137753100e+01 0 0 0
228 1 3 4.0768680934488383e-01 2.1668630699252658e+00 3.8457675230838007e+00 1.7331396188477612e+01 0 0 0
229 1 2 -4.9168822210792573e-01 5.2493269599800270e+00 3.7438173954582905e+00 1.6031404235010481e+01 0 0 0
230 1 3 4.0395718876442566e-01 6.4278636667115263e+00 3.8041674942183912e+00 1.6491530090790587e+01 0 0 0
231 1 3 4.3303535833367840e-01 4.9836796634171012e+00 3.8632018875668654e+00 1.4811776151464782e+01 0 0 0
232 1 1 -1.1654251549692612e-01 4.5354384350218941e+00 3.6881376478500911e+00 1.8274656574258209e+01 0 0 0
233 1 2 4.1841676185270948e-01 3.4435104898505458e+00 3.7700007231639718e+00 1.9339785627791159e+01 0 0 0
234 1 4 -3.6602476984787818e-01 3.8040661060879524e+00 3.8432469819066202e+00 2.0574795359613169e+01 0 0 0
235 1 4 -4.6723394296408094e-01 2.2077304063583494e+00 3.8960948003308360e+00 1.8964773716406572e+01 0 0 0
236 1 2 4.3752135294905686e-01 5.8629754882946079e+00 3.8025143647758188e+00 1.8732301422283971e+01 0 0 0
237 1 4 -4.6729164643805388e-01 6.0910058813558656e+00 3.7834455502706748e+00 2.0075863574974900e+01 0 0 0
238 1 4 -4.7156845327189922e-01 6.9176288992477266e+00 3.8030094852975136e+00 1.7937005478657241e+01 0 0 0
239 1 1 5.0039586629495691e-01 5.2849964348687184e+00 5.3177477253704817e+00 -7.7327505899772442e-02 0 0 1
240 1 2 -6.4795438117317117e-01 6.6357659253874166e+00 5.3970587463252997e+00 3.5529132964926546e-03 0 0 1
241 1 3 4.5153037244061245e-01 7.0109874711621085e+00 5.4451613509321293e+00 9.5949175647842577e-01 0 0 0
242 1 3 4.2850328377563268e-01 7.2155558129051354e+00 6.9669617158906867e+00 2.2187982320978907e+01 0 0 0
243 1 2 -5.3433872845021713e-01 4.5341521685072497e+00 5.2694992629751098e+00 1.0395778770506687e+00 0 0 0
244 1 3 4.3506490800706821e-01 3.3540905944620567e+00 5.2128862355802417e+00 8.0546717214873342e-01 0 0 0
245 1 3 4.1702823229977404e-01 5.1462761515913806e+00 5.1852759844267631e+00 2.1540333230615314e+00 0 0 0
246 1 1 -1.2690489158642576e-01 4.5174836044379116e+00 6.8404967987139615e+00 2.1899656408880304e+01 0 0 0
247 1 2 4.6126686530536976e-01 5.4188176813191715e+00 6.7388931701932178e+00 2.0695611036046181e+01 0 0 0
248 1 4 -4.3787010922151698e-01 4.8779444683157518e+00 6.4959544982716979e+00 1.9621564485072913e+01 0 0 0
249 1 4 -5.0140861499705147e-01 6.8029314747073304e+00 6.8368996949383405e+00 2.0771489864850931e+01 0 0 0
250 1 2 4.2320246853107513e-01 3.1216757305883545e+00 6.7765790228283773e+00 2.1743273165643501e+01 0 0 0
251 1 4 -4.2431536690205596e-01 2.4493341960559492e+00 6.5525249402304242e+00 2.0586056396107296e+01 0 0 0
252 1 4 -4.6138769715376377e-01 2.3315374372430857e+00 6.9128745773739970e+00 2.2799596858823239e+01 0 0 0
253 1 1 4.8408451731056557e-01 1.4814638180003101e+00 6.3484104347426724e+00 1.7543327751793587e+01 0 0 0
254 1 2 -5.9071536219372267e-01 2.8075364265996647e+00 6.2282022751172912e+00 1.7904987879403908e+01 0 0 0
255 1 3 4.3463245945449780e-01 2.9947732417743431e+00 6.2274441775279277e+00 1.9181657844527990e+01 0 0 0
256 1 3 4.2508479950458000e-01 3.4838171265035824e+00 6.3976595335413604e+00 1.7070444350033288e+01 0 0 0
257 1 2 -5.2236959564741525e-01 4.2587088406978346e-01 6.4315664394532002e+00 1.8376853980811788e+01 0 0 0
258 1 3 4.1977921717307976e-01 -7.7079707567822819e-01 6.4136429987458881e+00 1.7901491671602546e+01 0 0 0
259 1 3 4.5265397602744262e-01 7.1921015821887491e-01 6.4618512341634382e+00 1.9458817244473124e+01 0 0 0
260 1 1 -1.1194641465319416e-01 1.1240878558773086e+00 6.3892315631168834e+00 1.6124276188089990e+01 0 0 0
261 1 2 4.4235567178725377e-01 2.2296425075349311e+00 6.2948198015598065e+00 1.5044655627834150e+01 0 0 0
262 1 4 -3.9226845417199102e-01 1.9119498272574358e+00 6.1375141781821219e+00 1.3834128973400388e+01 0 0 0
263 1 4 -4.4586530542082081e-01 3.4775815476282981e+00 6.3464235142192598e+00 1.5443798891946496e+01 0 0 0
264 1 2 4.3743868311073592e-01 -2.0044324886948245e-01 6.4280352798150933e+00 1.5625696355221846e+01 0 0 0
265 1 4 -4.7587292191582853e-01 -3.5227789827230788e-01 6.5129459278549549e+00 1.4323619739706004e+01 1 0 0
266 1 4 -4.7354922318432235e-01 1.2623258787605076e+01 6.3335616457967108e+00 1.6479879896505647e+01 0 0 0
267 1 1 5.2507083989780334e-01 5.2892098147339039e-01 3.3901522340727164e+00 1.1130588112700815e+01 0 0 0
268 1 2 -6.4487522516064943e-01 1.2991269217123765e+01 3.4680503507232663e+00 1.1013385447289329e+01 0 0 0
269 1 3 4.6382442954230080e-01 1.2573517075224979e+01 3.4596673774071114e+00 1.0078938662020485e+01 0 0 0
270 1 3 4.2433509278276910e-01 1.2224086159344015e+01 3.4865222886884819e+00 1.2009189939000425e+01 0 0 0
271 1 2 -5.0620190283845501e-01 1.2391680959817202e+00 3.3574884403058745e+00 1.0031598980969550e+01 0 0 0
272 1 3 4.2517899070076420e-01 2.4584138930327724e+00 3.4028251202704283e+00 1.0280587801273436e+01 0 0 0
273 1 3 4.3149172402574371e-01 8.0576093654813596e-01 3.3183799590754077e+00 8.8173815692680240e+00 0 0 0
274 1 1 -1.3960978871014959e-01 1.0946900729654678e+00 3.4711947357017121e+00 1.2506923168663572e+01 0 0 0
275 1 2 4.3810086539078907e-01 1.7360273884757738e-01 3.4026417770663362e+00 1.3600248807750047e+01 0 0 0
276 1 4 -4.4139401983035270e-01 5.9311047001740769e-01 3.6774419806671395e+00 1.4723157987434201e+01 0 0 0
277 1 4 -4.9249634424025057e-01 1.2613760135689720e+01 3.2293394358010246e+00 1.3468296054897484e+01 0 0 0
278 1 2 4.5291222154499938e-01 2.5432128208344911e+00 3.5567026104141841e+00 1.2732398289260924e+01 0 0 0