ITEM: TIMESTEP
0
ITEM: NUMBER OF ATOMS
672
ITEM: BOX BOUNDS xy xz yz pp pp pp
0.0000000000000000e+00 2.9982000351000000e+01 0.0000000000000000e+00
0.0000000000000000e+00 1.2154000282300000e+01 0.0000000000000000e+00
0.0000000000000000e+00 2.0017000198400002e+01 0.0000000000000000e+00
ITEM: ATOMS id type xs ys zs
1 1 0.142374 0.0697399 0.155389
2 1 0.642374 0.0697399 0.155389
3 1 0.357626 0.93026 0.655389
4 1 0.857626 0.93026 0.655389
5 1 0.392374 0.93026 0.155389
6 1 0.892374 0.93026 0.155389
7 1 0.107626 0.0697399 0.655389
8 1 0.607626 0.0697399 0.655389
9 1 0.142374 0.56974 0.155389
10 1 0.642374 0.56974 0.155389
11 1 0.357626 0.43026 0.655389
12 1 0.857626 0.43026 0.655389
13 1 0.392374 0.43026 0.155389
14 1 0.892374 0.43026 0.155389
15 1 0.107626 0.56974 0.655389
16 1 0.607626 0.56974 0.655389
17 1 0.188313 0.0487855 0.151245
18 1 0.688313 0.0487855 0.151245
19 1 0.311687 0.951214 0.651245
20 1 0.811687 0.951215 0.651245
21 1 0.438313 0.951214 0.151245
22 1 0.938313 0.951214 0.151245
23 1 0.061687 0.0487855 0.651245
24 1 0.561687 0.0487855 0.651245
25 1 0.188313 0.548786 0.151245
26 1 0.688313 0.548786 0.151245
27 1 0.311687 0.451214 0.651245
28 1 0.811687 0.451215 0.651245
29 1 0.438313 0.451214 0.151245
30 1 0.938313 0.451214 0.151245
31 1 0.061687 0.548785 0.651245
32 1 0.561687 0.548786 0.651245
33 1 0.21475 0.114972 0.110313
34 1 0.71475 0.114972 0.110313
35 1 0.28525 0.885028 0.610313
36 1 0.78525 0.885028 0.610313
37 1 0.46475 0.885028 0.110313
38 1 0.96475 0.885028 0.110313
39 1 0.0352501 0.114972 0.610313
40 1 0.53525 0.114972 0.610313
41 1 0.21475 0.614972 0.110313
42 1 0.71475 0.614972 0.110313
43 1 0.28525 0.385028 0.610313
44 1 0.78525 0.385028 0.610313
45 1 0.46475 0.385028 0.110313
46 1 0.96475 0.385028 0.110313
47 1 0.0352501 0.614972 0.610313
48 1 0.53525 0.614972 0.610313
49 1 0.194394 0.199781 0.0737477
50 1 0.694394 0.199781 0.0737477
51 1 0.305606 0.800219 0.573748
52 1 0.805606 0.800219 0.573748
53 1 0.444394 0.800219 0.0737477
54 1 0.944394 0.800219 0.0737477
55 1 0.0556058 0.199781 0.573748
56 1 0.555606 0.199781 0.573748
57 1 0.194394 0.699781 0.0737477
58 1 0.694394 0.699781 0.0737477
59 1 0.305606 0.300219 0.573748
60 1 0.805606 0.300219 0.573748
61 1 0.444394 0.300219 0.0737477
62 1 0.944394 0.300219 0.0737477
63 1 0.0556058 0.699781 0.573748
64 1 0.555606 0.699781 0.573748
65 1 0.148484 0.221779 0.0785513
66 1 0.648484 0.221779 0.0785513
67 1 0.351516 0.778221 0.578551
68 1 0.851516 0.778221 0.578551
69 1 0.398484 0.778221 0.0785513
70 1 0.898484 0.778221 0.0785513
71 1 0.101516 0.221779 0.578551
72 1 0.601516 0.221779 0.578551
73 1 0.148484 0.721779 0.0785513
74 1 0.648484 0.721779 0.0785513
75 1 0.351516 0.278221 0.578551
76 1 0.851516 0.278221 0.578551
77 1 0.398484 0.278221 0.0785513
78 1 0.898484 0.278221 0.0785513
79 1 0.101516 0.721779 0.578551
80 1 0.601516 0.721779 0.578551
81 1 0.121672 0.154333 0.118735
82 1 0.621672 0.154333 0.118735
83 1 0.378328 0.845667 0.618735
84 1 0.878328 0.845667 0.618735
85 1 0.371672 0.845667 0.118735
86 1 0.871672 0.845667 0.118735
87 1 0.128328 0.154333 0.618735
88 1 0.628328 0.154333 0.618735
89 1 0.121672 0.654333 0.118735
90 1 0.621672 0.654333 0.118735
91 1 0.378328 0.345667 0.618735
92 1 0.878328 0.345667 0.618735
93 1 0.371672 0.345667 0.118735
94 1 0.871672 0.345667 0.118735
95 1 0.128328 0.654333 0.618735
96 1 0.628328 0.654333 0.618735
97 1 0.11582 0.998067 0.206189
98 1 0.61582 0.998067 0.206189
99 1 0.38418 0.00193263 0.706189
100 1 0.88418 0.00193264 0.706189
101 1 0.36582 0.00193264 0.206189
102 1 0.86582 0.00193262 0.206189
103 1 0.13418 0.998067 0.706189
104 1 0.63418 0.998067 0.706189
105 1 0.11582 0.498067 0.206189
106 1 0.61582 0.498067 0.206189
107 1 0.38418 0.501933 0.706189
108 1 0.88418 0.501933 0.706189
109 1 0.36582 0.501933 0.206189
110 1 0.86582 0.501933 0.206189
111 1 0.13418 0.498067 0.706189
112 1 0.63418 0.498067 0.706189
113 1 0.263763 0.183649 0.844878
114 1 0.763762 0.18365 0.844878
115 1 0.236237 0.816351 0.344878
116 1 0.736238 0.81635 0.344878
117 1 0.0137625 0.816351 0.844878
118 1 0.513762 0.81635 0.844878
119 1 0.486237 0.183649 0.344878
120 1 0.986238 0.18365 0.344878
121 1 0.263763 0.683649 0.844878
122 1 0.763762 0.68365 0.844878
123 1 0.236237 0.316351 0.344878
124 1 0.736238 0.31635 0.344878
125 1 0.0137625 0.316351 0.844878
126 1 0.513762 0.31635 0.844878
127 1 0.486237 0.683649 0.344878
128 1 0.986238 0.68365 0.344878
129 1 0.310178 0.200214 0.848157
130 1 0.810178 0.200214 0.848157
131 1 0.189822 0.799786 0.348157
132 1 0.689822 0.799786 0.348157
133 1 0.0601775 0.799786 0.848157
134 1 0.560178 0.799786 0.848157
135 1 0.439822 0.200214 0.348157
136 1 0.939822 0.200214 0.348157
137 1 0.310178 0.700214 0.848157
138 1 0.810178 0.700214 0.848157
139 1 0.189822 0.299786 0.348157
140 1 0.689822 0.299786 0.348157
141 1 0.0601775 0.299786 0.848157
142 1 0.560178 0.299786 0.848157
143 1 0.439822 0.700214 0.348157
144 1 0.939822 0.700214 0.348157
145 1 0.336398 0.131959 0.889203
146 1 0.836398 0.131959 0.889203
147 1 0.163602 0.868041 0.389203
148 1 0.663602 0.868041 0.389203
149 1 0.0863979 0.868041 0.889203
150 1 0.586398 0.868041 0.889203
151 1 0.413602 0.131959 0.389203
152 1 0.913602 0.131959 0.389203
153 1 0.336398 0.631959 0.889203
154 1 0.836398 0.631959 0.889203
155 1 0.163602 0.368041 0.389203
156 1 0.663602 0.368041 0.389203
157 1 0.0863979 0.368041 0.889203
158 1 0.586398 0.368041 0.889203
159 1 0.413602 0.631959 0.389203
160 1 0.913602 0.631959 0.389203
161 1 0.316245 0.0449514 0.923683
162 1 0.816245 0.0449514 0.923683
163 1 0.183755 0.955049 0.423683
164 1 0.683755 0.955049 0.423683
165 1 0.0662452 0.955049 0.923683
166 1 0.566245 0.955049 0.923683
167 1 0.433755 0.0449514 0.423683
168 1 0.933755 0.0449514 0.423683
169 1 0.316245 0.544951 0.923683
170 1 0.816245 0.544951 0.923683
171 1 0.183755 0.455049 0.423683
172 1 0.683755 0.455049 0.423683
173 1 0.0662452 0.455049 0.923683
174 1 0.566245 0.455049 0.923683
175 1 0.433755 0.544951 0.423683
176 1 0.933755 0.544951 0.423683
177 1 0.270339 0.0242219 0.918547
178 1 0.770339 0.0242219 0.918547
179 1 0.229661 0.975778 0.418547
180 1 0.729661 0.975778 0.418547
181 1 0.0203389 0.975778 0.918547
182 1 0.520339 0.975778 0.918547
183 1 0.479661 0.0242219 0.418547
184 1 0.979661 0.0242219 0.418547
185 1 0.270339 0.524222 0.918547
186 1 0.770339 0.524222 0.918547
187 1 0.229661 0.475778 0.418547
188 1 0.729661 0.475778 0.418547
189 1 0.0203389 0.475778 0.918547
190 1 0.520339 0.475778 0.918547
191 1 0.479661 0.524222 0.418547
192 1 0.979661 0.524222 0.418547
193 1 0.244531 0.0977685 0.881165
194 1 0.744531 0.0977686 0.881165
195 1 0.255469 0.902232 0.381165
196 1 0.755469 0.902231 0.381165
197 1 0.494531 0.902231 0.881165
198 1 0.994531 0.902232 0.881165
199 1 0.00546896 0.0977686 0.381165
200 1 0.505469 0.0977685 0.381165
201 1 0.244531 0.597768 0.881165
202 1 0.744531 0.597769 0.881165
203 1 0.255469 0.402232 0.381165
204 1 0.755469 0.402231 0.381165
205 1 0.494531 0.402231 0.881165
206 1 0.994531 0.402232 0.881165
207 1 0.00546895 0.597769 0.381165
208 1 0.505469 0.597768 0.381165
209 1 0.231523 0.250612 0.799419
210 1 0.731523 0.250612 0.799419
211 1 0.268477 0.749388 0.299419
212 1 0.768477 0.749388 0.299419
213 1 0.481523 0.749388 0.799419
214 1 0.981523 0.749388 0.799419
215 1 0.0184773 0.250612 0.299419
216 1 0.518477 0.250612 0.299419
217 1 0.231523 0.750612 0.799419
218 1 0.731523 0.750612 0.799419
219 1 0.268477 0.249388 0.299419
220 1 0.768477 0.249388 0.299419
221 1 0.481523 0.249388 0.799419
222 1 0.981523 0.249388 0.799419
223 1 0.0184773 0.750612 0.299419
224 1 0.518477 0.750612 0.299419
225 2 0.211914 0.9564 0.192947
226 2 0.711914 0.9564 0.192947
227 2 0.288086 0.0436002 0.692947
228 2 0.788086 0.0436002 0.692947
229 2 0.461914 0.0436002 0.192947
230 2 0.961914 0.0436002 0.192947
231 2 0.0380856 0.9564 0.692947
232 2 0.538086 0.9564 0.692947
233 2 0.211914 0.4564 0.192947
234 2 0.711914 0.4564 0.192947
235 2 0.288086 0.5436 0.692947
236 2 0.788086 0.5436 0.692947
237 2 0.461914 0.5436 0.192947
238 2 0.961914 0.5436 0.192947
239 2 0.0380856 0.4564 0.692947
240 2 0.538086 0.4564 0.692947
241 2 0.222962 0.272305 0.0267724
242 2 0.722962 0.272305 0.0267724
243 2 0.277038 0.727695 0.526772
244 2 0.777038 0.727695 0.526772
245 2 0.472962 0.727695 0.0267724
246 2 0.972962 0.727695 0.0267724
247 2 0.0270378 0.272305 0.526772
248 2 0.527038 0.272305 0.526772
249 2 0.222962 0.772305 0.0267724
250 2 0.722962 0.772305 0.0267724
251 2 0.277038 0.227695 0.526772
252 2 0.777038 0.227695 0.526772
253 2 0.472962 0.227695 0.0267724
254 2 0.972962 0.227695 0.0267724
255 2 0.0270378 0.772305 0.526772
256 2 0.527038 0.772305 0.526772
257 2 0.070045 0.175798 0.122909
258 2 0.570045 0.175798 0.122909
259 2 0.429955 0.824202 0.622909
260 2 0.929955 0.824202 0.622909
261 2 0.320045 0.824202 0.122909
262 2 0.820045 0.824202 0.122909
263 2 0.179955 0.175798 0.622909
264 2 0.679955 0.175798 0.622909
265 2 0.070045 0.675798 0.122909
266 2 0.570045 0.675798 0.122909
267 2 0.429955 0.324202 0.622909
268 2 0.929955 0.324202 0.622909
269 2 0.320045 0.324202 0.122909
270 2 0.820045 0.324202 0.122909
271 2 0.179955 0.675798 0.622909
272 2 0.679955 0.675798 0.622909
273 2 0.335213 0.290757 0.807509
274 2 0.835213 0.290757 0.807509
275 2 0.164787 0.709243 0.307509
276 2 0.664787 0.709243 0.307509
277 2 0.0852125 0.709243 0.807509
278 2 0.585213 0.709243 0.807509
279 2 0.414787 0.290757 0.307509
280 2 0.914787 0.290757 0.307509
281 2 0.335213 0.790757 0.807509
282 2 0.835213 0.790757 0.807509
283 2 0.164787 0.209243 0.307509
284 2 0.664787 0.209243 0.307509
285 2 0.0852125 0.209243 0.807509
286 2 0.585213 0.209243 0.807509
287 2 0.414787 0.790757 0.307509
288 2 0.914787 0.790757 0.307509
289 2 0.34538 0.969026 0.968275
290 2 0.84538 0.969026 0.968275
291 2 0.15462 0.0309735 0.468275
292 2 0.65462 0.0309736 0.468275
293 2 0.0953802 0.0309735 0.968275
294 2 0.59538 0.0309736 0.968275
295 2 0.40462 0.969026 0.468275
296 2 0.90462 0.969026 0.468275
297 2 0.34538 0.469026 0.968275
298 2 0.84538 0.469026 0.968275
299 2 0.15462 0.530974 0.468275
300 2 0.65462 0.530974 0.468275
301 2 0.0953801 0.530974 0.968275
302 2 0.59538 0.530974 0.968275
303 2 0.40462 0.469026 0.468275
304 2 0.90462 0.469026 0.468275
305 2 0.192847 0.0767065 0.88023
306 2 0.692847 0.0767065 0.88023
307 2 0.307153 0.923293 0.38023
308 2 0.807153 0.923294 0.38023
309 2 0.442847 0.923294 0.88023
310 2 0.942847 0.923293 0.88023
311 2 0.0571535 0.0767064 0.38023
312 2 0.557153 0.0767065 0.38023
313 2 0.192847 0.576707 0.88023
314 2 0.692847 0.576706 0.88023
315 2 0.307153 0.423293 0.38023
316 2 0.807153 0.423294 0.38023
317 2 0.442847 0.423294 0.88023
318 2 0.942847 0.423293 0.88023
319 2 0.0571535 0.576706 0.38023
320 2 0.557153 0.576707 0.38023
321 3 0.194221 0.859022 0.196281
322 3 0.694221 0.859022 0.196281
323 3 0.305779 0.140978 0.696281
324 3 0.805779 0.140978 0.696281
325 3 0.444221 0.140978 0.196281
326 3 0.944221 0.140978 0.196281
327 3 0.0557785 0.859022 0.696281
328 3 0.555779 0.859022 0.696281
329 3 0.194221 0.359022 0.196281
330 3 0.694221 0.359022 0.196281
331 3 0.305779 0.640978 0.696281
332 3 0.805779 0.640978 0.696281
333 3 0.444221 0.640978 0.196281
334 3 0.944221 0.640978 0.196281
335 3 0.0557785 0.359022 0.696281
336 3 0.555779 0.359022 0.696281
337 3 0.249009 0.981036 0.222975
338 3 0.749009 0.981036 0.222975
339 3 0.250991 0.0189642 0.722975
340 3 0.750991 0.0189642 0.722975
341 3 0.499009 0.0189642 0.222975
342 3 0.999009 0.0189642 0.222975
343 3 0.000990628 0.981036 0.722975
344 3 0.500991 0.981036 0.722975
345 3 0.249009 0.481036 0.222975
346 3 0.749009 0.481036 0.222975
347 3 0.250991 0.518964 0.722975
348 3 0.750991 0.518964 0.722975
349 3 0.499009 0.518964 0.222975
350 3 0.999009 0.518964 0.222975
351 3 0.00099063 0.481036 0.722975
352 3 0.500991 0.481036 0.722975
353 3 0.260811 0.233443 0.00470437
354 3 0.760811 0.233443 0.00470436
355 3 0.239189 0.766557 0.504704
356 3 0.739189 0.766557 0.504704
357 3 0.0108112 0.766557 0.00470437
358 3 0.510811 0.766557 0.00470436
359 3 0.489189 0.233443 0.504704
360 3 0.989189 0.233443 0.504704
361 3 0.260811 0.733443 0.00470438
362 3 0.760811 0.733443 0.00470436
363 3 0.239189 0.266557 0.504704
364 3 0.739189 0.266557 0.504704
365 3 0.0108112 0.266557 0.00470438
366 3 0.510811 0.266557 0.00470436
367 3 0.489189 0.733443 0.504704
368 3 0.989189 0.733443 0.504704
369 3 0.208567 0.370331 0.0108336
370 3 0.708567 0.370331 0.0108336
371 3 0.291433 0.629669 0.510834
372 3 0.791433 0.629669 0.510834
373 3 0.458567 0.629669 0.0108336
374 3 0.958567 0.629669 0.0108336
375 3 0.0414333 0.370331 0.510834
376 3 0.541433 0.370331 0.510834
377 3 0.208567 0.870331 0.0108336
378 3 0.708567 0.870331 0.0108336
379 3 0.291433 0.129669 0.510834
380 3 0.791433 0.129669 0.510834
381 3 0.458567 0.129669 0.0108336
382 3 0.958567 0.129669 0.0108336
383 3 0.0414333 0.870331 0.510834
384 3 0.541433 0.870331 0.510834
385 3 0.055941 0.275251 0.134171
386 3 0.555941 0.275251 0.134171
387 3 0.444059 0.724749 0.634171
388 3 0.944059 0.724749 0.634171
389 3 0.305941 0.724749 0.134171
390 3 0.805941 0.724749 0.134171
391 3 0.194059 0.275251 0.634171
392 3 0.694059 0.275251 0.634171
393 3 0.055941 0.775251 0.134171
394 3 0.555941 0.775251 0.134171
395 3 0.444059 0.224749 0.634171
396 3 0.944059 0.224749 0.634171
397 3 0.305941 0.224749 0.134171
398 3 0.805941 0.224749 0.134171
399 3 0.194059 0.775251 0.634171
400 3 0.694059 0.775251 0.634171
401 3 0.0430396 0.0941341 0.111666
402 3 0.54304 0.0941341 0.111666
403 3 0.45696 0.905866 0.611666
404 3 0.95696 0.905866 0.611666
405 3 0.29304 0.905866 0.111666
406 3 0.79304 0.905866 0.111666
407 3 0.20696 0.0941341 0.611666
408 3 0.70696 0.0941341 0.611666
409 3 0.0430396 0.594134 0.111666
410 3 0.54304 0.594134 0.111666
411 3 0.45696 0.405866 0.611666
412 3 0.95696 0.405866 0.611666
413 3 0.29304 0.405866 0.111666
414 3 0.79304 0.405866 0.111666
415 3 0.20696 0.594134 0.611666
416 3 0.70696 0.594134 0.611666
417 3 0.317605 0.387974 0.80277
418 3 0.817605 0.387974 0.80277
419 3 0.182395 0.612026 0.30277
420 3 0.682395 0.612026 0.30277
421 3 0.0676051 0.612026 0.80277
422 3 0.567605 0.612026 0.80277
423 3 0.432395 0.387974 0.30277
424 3 0.932395 0.387974 0.30277
425 3 0.317605 0.887974 0.80277
426 3 0.817605 0.887974 0.80277
427 3 0.182395 0.112026 0.30277
428 3 0.682395 0.112026 0.30277
429 3 0.0676051 0.112026 0.80277
430 3 0.567605 0.112026 0.80277
431 3 0.432395 0.887974 0.30277
432 3 0.932395 0.887974 0.30277
433 3 0.373217 0.265653 0.780083
434 3 0.873217 0.265653 0.780083
435 3 0.126783 0.734347 0.280083
436 3 0.626783 0.734347 0.280083
437 3 0.123217 0.734347 0.780083
438 3 0.623217 0.734347 0.780083
439 3 0.376783 0.265653 0.280083
440 3 0.876783 0.265653 0.280083
441 3 0.373217 0.765653 0.780083
442 3 0.873217 0.765653 0.780083
443 3 0.126783 0.234347 0.280083
444 3 0.626783 0.234347 0.280083
445 3 0.123217 0.234347 0.780083
446 3 0.623217 0.234347 0.780083
447 3 0.376783 0.765653 0.280083
448 3 0.876783 0.765653 0.280083
449 3 0.379848 0.0111567 0.998823
450 3 0.879848 0.0111567 0.998823
451 3 0.120152 0.988843 0.498823
452 3 0.620152 0.988843 0.498823
453 3 0.129848 0.988843 0.998823
454 3 0.629848 0.988843 0.998823
455 3 0.370152 0.0111568 0.498823
456 3 0.870152 0.0111567 0.498823
457 3 0.379848 0.511157 0.998823
458 3 0.879848 0.511157 0.998823
459 3 0.120152 0.488843 0.498823
460 3 0.620152 0.488843 0.498823
461 3 0.129848 0.488843 0.998823
462 3 0.629848 0.488843 0.998823
463 3 0.370152 0.511157 0.498823
464 3 0.870152 0.511157 0.498823
465 3 0.333705 0.866217 0.974961
466 3 0.833705 0.866217 0.974961
467 3 0.166295 0.133783 0.474961
468 3 0.666295 0.133783 0.474961
469 3 0.083705 0.133783 0.974961
470 3 0.583705 0.133783 0.974961
471 3 0.416295 0.866217 0.474961
472 3 0.916295 0.866217 0.474961
473 3 0.333705 0.366217 0.974961
474 3 0.833705 0.366217 0.974961
475 3 0.166295 0.633783 0.474961
476 3 0.666295 0.633783 0.474961
477 3 0.083705 0.633783 0.974961
478 3 0.583705 0.633783 0.974961
479 3 0.416295 0.366217 0.474961
480 3 0.916295 0.366217 0.474961
481 3 0.178235 0.982077 0.859984
482 3 0.678235 0.982078 0.859984
483 3 0.321765 0.0179226 0.359984
484 3 0.821765 0.0179224 0.359984
485 3 0.428235 0.0179224 0.859984
486 3 0.928235 0.0179226 0.859984
487 3 0.0717648 0.982078 0.359984
488 3 0.571765 0.982077 0.359984
489 3 0.178235 0.482077 0.859984
490 3 0.678235 0.482078 0.859984
491 3 0.321765 0.517923 0.359984
492 3 0.821765 0.517922 0.359984
493 3 0.428235 0.517922 0.859984
494 3 0.928235 0.517923 0.859984
495 3 0.0717648 0.482078 0.359984
496 3 0.571765 0.482077 0.359984
497 3 0.167007 0.155398 0.90047
498 3 0.667007 0.155398 0.90047
499 3 0.332993 0.844602 0.40047
500 3 0.832993 0.844602 0.40047
501 3 0.417007 0.844602 0.90047
502 3 0.917007 0.844602 0.90047
503 3 0.0829925 0.155398 0.40047
504 3 0.582993 0.155398 0.40047
505 3 0.167007 0.655398 0.90047
506 3 0.667007 0.655398 0.90047
507 3 0.332993 0.344602 0.40047
508 3 0.832993 0.344602 0.40047
509 3 0.417007 0.344602 0.90047
510 3 0.917007 0.344602 0.90047
511 3 0.0829925 0.655398 0.40047
512 3 0.582993 0.655398 0.40047
513 4 0.137003 0.970527 0.247357
514 4 0.637003 0.970527 0.247357
515 4 0.362997 0.0294727 0.747357
516 4 0.862997 0.0294727 0.747357
517 4 0.387003 0.0294727 0.247357
518 4 0.887003 0.0294727 0.247357
519 4 0.112997 0.970527 0.747357
520 4 0.612997 0.970527 0.747357
521 4 0.137003 0.470527 0.247357
522 4 0.637003 0.470527 0.247357
523 4 0.362997 0.529473 0.747357
524 4 0.862997 0.529473 0.747357
525 4 0.387003 0.529473 0.247357
526 4 0.887003 0.529473 0.247357
527 4 0.112997 0.470527 0.747357
528 4 0.612997 0.470527 0.747357
529 4 0.102856 0.924622 0.181362
530 4 0.602856 0.924622 0.181362
531 4 0.397144 0.075378 0.681362
532 4 0.897144 0.075378 0.681362
533 4 0.352856 0.075378 0.181362
534 4 0.852856 0.075378 0.181362
535 4 0.147144 0.924622 0.681362
536 4 0.647144 0.924622 0.681362
537 4 0.102856 0.424622 0.181362
538 4 0.602856 0.424622 0.181362
539 4 0.397144 0.575378 0.681362
540 4 0.897144 0.575378 0.681362
541 4 0.352856 0.575378 0.181362
542 4 0.852856 0.575378 0.181362
543 4 0.147144 0.424622 0.681362
544 4 0.647144 0.424622 0.681362
545 4 0.0881751 0.0442613 0.227819
546 4 0.588175 0.0442613 0.227819
547 4 0.411825 0.955739 0.727819
548 4 0.911825 0.955739 0.727819
549 4 0.338175 0.955739 0.227819
550 4 0.838175 0.955739 0.227819
551 4 0.161825 0.0442613 0.727819
552 4 0.661825 0.0442613 0.727819
553 4 0.0881751 0.544261 0.227819
554 4 0.588175 0.544261 0.227819
555 4 0.411825 0.455739 0.727819
556 4 0.911825 0.455739 0.727819
557 4 0.338175 0.455739 0.227819
558 4 0.838175 0.455739 0.227819
559 4 0.161825 0.544261 0.727819
560 4 0.661825 0.544261 0.727819
561 4 0.250317 0.0998581 0.107582
562 4 0.750317 0.0998581 0.107582
563 4 0.249683 0.900142 0.607582
564 4 0.749683 0.900142 0.607582
565 4 0.500317 0.900142 0.107582
566 4 0.000316646 0.900142 0.107582
567 4 0.999683 0.0998581 0.607582
568 4 0.499683 0.0998581 0.607582
569 4 0.250317 0.599858 0.107582
570 4 0.750317 0.599858 0.107582
571 4 0.249683 0.400142 0.607582
572 4 0.749683 0.400142 0.607582
573 4 0.500317 0.400142 0.107582
574 4 0.000316638 0.400142 0.107582
575 4 0.999683 0.599858 0.607582
576 4 0.499683 0.599858 0.607582
577 4 0.133679 0.288125 0.0501751
578 4 0.633679 0.288125 0.0501751
579 4 0.366321 0.711875 0.550175
580 4 0.866321 0.711875 0.550175
581 4 0.383679 0.711875 0.0501751
582 4 0.883679 0.711875 0.0501751
583 4 0.116321 0.288125 0.550175
584 4 0.616321 0.288125 0.550175
585 4 0.133679 0.788125 0.0501751
586 4 0.633679 0.788125 0.0501751
587 4 0.366321 0.211875 0.550175
588 4 0.866321 0.211875 0.550175
589 4 0.383679 0.211875 0.0501751
590 4 0.883679 0.211875 0.0501751
591 4 0.116321 0.788125 0.550175
592 4 0.616321 0.788125 0.550175
593 4 0.248284 0.283115 0.755071
594 4 0.748284 0.283115 0.755071
595 4 0.251716 0.716885 0.255071
596 4 0.751716 0.716885 0.255071
597 4 0.498284 0.716885 0.755071
598 4 0.998284 0.716885 0.755071
599 4 0.00171604 0.283115 0.255071
600 4 0.501716 0.283115 0.255071
601 4 0.248284 0.783115 0.755071
602 4 0.748284 0.783115 0.755071
603 4 0.251716 0.216885 0.255071
604 4 0.751716 0.216885 0.255071
605 4 0.498284 0.216885 0.755071
606 4 0.998284 0.216885 0.755071
607 4 0.00171604 0.783115 0.255071
608 4 0.501716 0.783115 0.255071
609 4 0.203719 0.199599 0.78213
610 4 0.703719 0.199599 0.78213
611 4 0.296281 0.800401 0.28213
612 4 0.796281 0.800401 0.28213
613 4 0.453719 0.800401 0.78213
614 4 0.953719 0.800401 0.78213
615 4 0.0462805 0.199599 0.28213
616 4 0.546281 0.199599 0.28213
617 4 0.203719 0.699599 0.78213
618 4 0.703719 0.699599 0.78213
619 4 0.296281 0.300401 0.28213
620 4 0.796281 0.300401 0.28213
621 4 0.453719 0.300401 0.78213
622 4 0.953719 0.300401 0.78213
623 4 0.0462805 0.699599 0.28213
624 4 0.546281 0.699599 0.28213
625 4 0.215956 0.319584 0.825867
626 4 0.715956 0.319584 0.825867
627 4 0.284044 0.680416 0.325867
628 4 0.784044 0.680416 0.325867
629 4 0.465956 0.680416 0.825867
630 4 0.965956 0.680416 0.825867
631 4 0.0340436 0.319584 0.325867
632 4 0.534044 0.319584 0.325867
633 4 0.215956 0.819584 0.825867
634 4 0.715956 0.819584 0.825867
635 4 0.284044 0.180416 0.325867
636 4 0.784044 0.180416 0.325867
637 4 0.465956 0.180416 0.825867
638 4 0.965956 0.180416 0.825867
639 4 0.0340436 0.819584 0.325867
640 4 0.534044 0.819584 0.325867
641 4 0.371979 0.145617 0.893291
642 4 0.871979 0.145617 0.893291
643 4 0.128021 0.854383 0.393291
644 4 0.628021 0.854383 0.393291
645 4 0.121979 0.854383 0.893291
646 4 0.621979 0.854383 0.893291
647 4 0.378021 0.145617 0.393291
648 4 0.878021 0.145617 0.393291
649 4 0.371979 0.645617 0.893291
650 4 0.871979 0.645617 0.893291
651 4 0.128021 0.354383 0.393291
652 4 0.628021 0.354383 0.393291
653 4 0.121979 0.354383 0.893291
654 4 0.621979 0.354383 0.893291
655 4 0.378021 0.645617 0.393291
656 4 0.878021 0.645617 0.393291
657 4 0.254691 0.955911 0.944492
658 4 0.754691 0.955911 0.944492
659 4 0.245309 0.0440889 0.444492
660 4 0.745309 0.0440891 0.444492
661 4 0.0046912 0.0440889 0.944492
662 4 0.504691 0.0440891 0.944492
663 4 0.495309 0.955911 0.444492
664 4 0.995309 0.955911 0.444492
665 4 0.254691 0.455911 0.944492
666 4 0.754691 0.455911 0.944492
667 4 0.245309 0.544089 0.444492
668 4 0.745309 0.544089 0.444492
669 4 0.00469119 0.544089 0.944492
670 4 0.504691 0.544089 0.944492
671 4 0.495309 0.455911 0.444492
672 4 0.995309 0.455911 0.444492
ITEM: TIMESTEP
1000
ITEM: NUMBER OF ATOMS
672
ITEM: BOX BOUNDS xy xz yz pp pp pp
-2.9131081449765155e+00 3.2582886177400987e+01 -2.1242402122757545e-01
-1.6492770946289603e-01 1.2469573604090129e+01 -9.9798297350274970e-02
-5.0971185019616172e-01 2.0526712048596142e+01 1.5064561232724588e-01
ITEM: ATOMS id type xs ys zs
1 1 0.144819 0.0995163 0.15702
2 1 0.651401 0.0406693 0.173125
3 1 0.355569 0.956733 0.653581
4 1 0.846033 0.965078 0.658512
5 1 0.387077 0.955052 0.163287
6 1 0.894245 0.908561 0.154162
7 1 0.086567 0.0651487 0.664834
8 1 0.599005 0.0859968 0.654404
9 1 0.138014 0.549169 0.173124
10 1 0.664306 0.529618 0.163439
11 1 0.342984 0.439336 0.664473
12 1 0.842602 0.462145 0.664025
13 1 0.397669 0.432374 0.176465
14 1 0.901369 0.42691 0.15449
15 1 0.107184 0.558149 0.637458
16 1 0.591098 0.607849 0.652423
17 1 0.183115 0.0743778 0.145788
18 1 0.688388 0.0130815 0.155614
19 1 0.316607 0.978967 0.648493
20 1 0.807269 0.980566 0.641622
21 1 0.425445 0.988046 0.159698
22 1 0.932354 0.948122 0.141179
23 1 0.0485372 0.0341644 0.657473
24 1 0.559517 0.0555507 0.650166
25 1 0.174917 0.509971 0.164388
26 1 0.703739 0.529575 0.146825
27 1 0.304768 0.456095 0.652519
28 1 0.803336 0.467914 0.650674
29 1 0.436785 0.450952 0.160609
30 1 0.938092 0.468699 0.149272
31 1 0.067983 0.53605 0.631202
32 1 0.551497 0.587997 0.647273
33 1 0.204044 0.135103 0.101248
34 1 0.704501 0.0737192 0.103647
35 1 0.294709 0.908046 0.610977
36 1 0.786976 0.907344 0.603694
37 1 0.450522 0.928991 0.124075
38 1 0.955136 0.889892 0.100796
39 1 0.0282226 0.0773371 0.604738
40 1 0.53513 0.120779 0.61604
41 1 0.20081 0.559074 0.122362
42 1 0.716877 0.613239 0.107095
43 1 0.286289 0.399463 0.602566
44 1 0.789883 0.400558 0.601243
45 1 0.453576 0.367073 0.128486
46 1 0.962772 0.42652 0.103632
47 1 0.0452022 0.600769 0.592615
48 1 0.531714 0.647076 0.60181
49 1 0.186843 0.220316 0.066858
50 1 0.685508 0.15126 0.0695378
51 1 0.30999 0.818541 0.582591
52 1 0.804579 0.818137 0.575708
53 1 0.437522 0.846498 0.0831613
54 1 0.939957 0.802211 0.064255
55 1 0.0442631 0.152871 0.563977
56 1 0.547237 0.215678 0.583496
57 1 0.189073 0.645718 0.0813002
58 1 0.693165 0.689781 0.0765066
59 1 0.307867 0.327611 0.565401
60 1 0.814699 0.335213 0.56566
61 1 0.434859 0.270624 0.107417
62 1 0.952702 0.335441 0.0689616
63 1 0.059744 0.69561 0.564091
64 1 0.55033 0.714157 0.556071
65 1 0.14929 0.249031 0.0801167
66 1 0.646842 0.16949 0.0853145
67 1 0.348949 0.798308 0.588777
68 1 0.844358 0.806937 0.588927
69 1 0.398877 0.81979 0.0827257
70 1 0.901594 0.771024 0.0723581
71 1 0.0822886 0.18574 0.574556
72 1 0.585838 0.242922 0.585691
73 1 0.151918 0.68516 0.0917723
74 1 0.654607 0.679501 0.0900905
75 1 0.347187 0.311866 0.577915
76 1 0.854301 0.33273 0.581091
77 1 0.396998 0.260395 0.122966
78 1 0.914869 0.291437 0.0733914
79 1 0.0987547 0.720328 0.575369
80 1 0.590114 0.736447 0.565504
81 1 0.128611 0.186081 0.124897
82 1 0.630914 0.113821 0.135846
83 1 0.372999 0.872868 0.619082
84 1 0.863209 0.872603 0.633849
85 1 0.373592 0.87849 0.11993
86 1 0.879266 0.822799 0.118766
87 1 0.103732 0.143113 0.625223
88 1 0.611476 0.183597 0.623615
89 1 0.128877 0.643159 0.139766
90 1 0.640554 0.601516 0.13415
91 1 0.364308 0.372372 0.626809
92 1 0.866531 0.395978 0.630277
93 1 0.376089 0.345726 0.153757
94 1 0.890866 0.332516 0.120292
95 1 0.122067 0.655677 0.613734
96 1 0.609095 0.694253 0.619276
97 1 0.116118 0.0352496 0.20123
98 1 0.63465 0.984399 0.232746
99 1 0.381698 0.0222389 0.69867
100 1 0.865019 0.0367731 0.708412
101 1 0.358276 0.996376 0.212744
102 1 0.869537 0.960269 0.204883
103 1 0.112481 0.012892 0.718283
104 1 0.630074 0.0210223 0.689601
105 1 0.106799 0.499974 0.216395
106 1 0.647225 0.449396 0.21391
107 1 0.363552 0.499791 0.721334
108 1 0.860768 0.525169 0.72069
109 1 0.375381 0.518492 0.213179
110 1 0.869583 0.468873 0.201621
111 1 0.133807 0.490659 0.68042
112 1 0.619551 0.544597 0.693673
113 1 0.282626 0.159683 0.847708
114 1 0.7729 0.163853 0.837859
115 1 0.229034 0.792277 0.320443
116 1 0.722578 0.785337 0.335047
117 1 0.0399715 0.786668 0.828
118 1 0.530833 0.800132 0.849974
119 1 0.487811 0.197092 0.33449
120 1 0.976851 0.164371 0.345066
121 1 0.290943 0.699086 0.83511
122 1 0.769528 0.683228 0.836862
123 1 0.227378 0.322052 0.365358
124 1 0.741165 0.315624 0.339069
125 1 0.0238093 0.368274 0.833294
126 1 0.516975 0.302317 0.8729
127 1 0.475428 0.667755 0.347893
128 1 0.973082 0.674104 0.334
129 1 0.321164 0.182322 0.861108
130 1 0.81309 0.182266 0.844961
131 1 0.189708 0.784282 0.334087
132 1 0.683994 0.774382 0.346288
133 1 0.0798134 0.794668 0.830276
134 1 0.569967 0.801583 0.863015
135 1 0.451663 0.225518 0.353864
136 1 0.93694 0.182786 0.345626
137 1 0.32912 0.707745 0.847352
138 1 0.807511 0.707854 0.840776
139 1 0.188114 0.298034 0.36998
140 1 0.702137 0.288019 0.349253
141 1 0.0628255 0.3564 0.849569
142 1 0.557239 0.293521 0.86696
143 1 0.438218 0.705339 0.35057
144 1 0.933327 0.679431 0.338953
145 1 0.341607 0.104313 0.89642
146 1 0.835027 0.120827 0.88591
147 1 0.173587 0.852883 0.379833
148 1 0.666797 0.851757 0.385936
149 1 0.0968867 0.868069 0.87315
150 1 0.586726 0.885223 0.899578
151 1 0.433787 0.153185 0.397315
152 1 0.913046 0.109862 0.375412
153 1 0.346041 0.644815 0.897284
154 1 0.829614 0.638669 0.879591
155 1 0.165895 0.364743 0.406822
156 1 0.682748 0.356342 0.389507
157 1 0.0826988 0.426747 0.888879
158 1 0.57982 0.368359 0.898865
159 1 0.412635 0.654558 0.394964
160 1 0.915928 0.603522 0.381004
161 1 0.322908 0.0112013 0.918655
162 1 0.816586 0.0277898 0.911934
163 1 0.196513 0.929104 0.409527
164 1 0.686371 0.94396 0.406507
165 1 0.0731455 0.939538 0.905964
166 1 0.564616 0.95364 0.934747
167 1 0.449766 0.057125 0.415056
168 1 0.928576 0.022983 0.412442
169 1 0.323753 0.577852 0.934275
170 1 0.813912 0.554381 0.914919
171 1 0.180081 0.462705 0.430711
172 1 0.700042 0.438386 0.425274
173 1 0.0607866 0.498306 0.924358
174 1 0.564847 0.448067 0.938367
175 1 0.424426 0.567576 0.43126
176 1 0.936401 0.523497 0.412423
177 1 0.283899 0.997204 0.908829
178 1 0.777485 0.0046007 0.905273
179 1 0.237087 0.931174 0.399276
180 1 0.72631 0.955513 0.395938
181 1 0.0334642 0.925763 0.907766
182 1 0.524385 0.943263 0.928269
183 1 0.488641 0.0364069 0.402542
184 1 0.966987 0.00443512 0.408722
185 1 0.283454 0.57316 0.922277
186 1 0.774637 0.531711 0.910243
187 1 0.218915 0.486617 0.42492
188 1 0.738709 0.46397 0.41589
189 1 0.0219931 0.507819 0.91186
190 1 0.525517 0.441943 0.951676
191 1 0.463377 0.535987 0.426718
192 1 0.975753 0.523389 0.406825
193 1 0.263135 0.0721146 0.876062
194 1 0.756863 0.0698676 0.8633
195 1 0.254108 0.867507 0.353023
196 1 0.742409 0.877879 0.357311
197 1 0.507489 0.868713 0.884942
198 1 0.0164769 0.848634 0.867342
199 1 0.991852 0.0755565 0.376999
200 1 0.508369 0.109856 0.360694
201 1 0.267283 0.623897 0.870836
202 1 0.751833 0.600685 0.871975
203 1 0.24325 0.416972 0.391674
204 1 0.757732 0.399275 0.373398
205 1 0.50189 0.370027 0.918897
206 1 0.00327153 0.447782 0.866349
207 1 0.994493 0.596232 0.364835
208 1 0.49068 0.586509 0.386212
209 1 0.256126 0.233122 0.808656
210 1 0.745817 0.249044 0.808497
211 1 0.245642 0.716385 0.272469
212 1 0.745845 0.70006 0.297597
213 1 0.51368 0.719655 0.800918
214 1 0.0239882 0.699441 0.782036
215 1 0.00509106 0.243992 0.311232
216 1 0.508635 0.26382 0.281214
217 1 0.271917 0.76823 0.781747
218 1 0.744 0.761764 0.795262
219 1 0.249009 0.236232 0.326665
220 1 0.768784 0.249488 0.29729
221 1 0.489696 0.236987 0.830288
222 1 0.00334829 0.29347 0.787508
223 1 0.994173 0.757384 0.291285
224 1 0.501064 0.721676 0.2953