LAMMPS data file via write_data, version 15 Apr 2020, timestep = 80000

672 atoms
4 atom types

-4.5609076928522665e+00 3.4542908044159439e+01 xlo xhi
-8.2810938910194931e-01 1.2982109671402295e+01 ylo yhi
1.0461533088425821e+00 1.8970846889557187e+01 zlo zhi
-2.2652053800467962e+00 1.9121302954156640e+00 6.0670195474538313e-01 xy xz yz

Masses

1 12.0107
2 14.0067
3 15.9994
4 1.00794

Atoms # full

199 1 1 1.1341154858638586e-01 -5.7248011112715016e+00 1.2494411091561787e+01 5.1989526994598041e+00 0 -1 0
672 1 4 2.0560011706901277e-01 -3.9928927224696298e+00 4.2492309450488444e+00 9.4401555517166162e+00 1 0 0
623 1 4 2.6534942252525773e-01 -3.3231999777602650e+00 5.5869119608269857e+00 4.8516433178374392e+00 0 0 0
365 1 3 -1.9125479724691299e-01 -3.8034375477857498e+00 1.2945858136063069e+00 1.6629962931275164e+00 0 0 0
368 1 3 -1.6325030760806797e-01 -4.0567757801397306e+00 7.5045693488556688e+00 8.8984553169133136e+00 1 0 0
39 1 1 -1.3533978783437223e-01 -3.5162303517439479e+00 1.2734978521309586e+01 1.1394579876697426e+01 0 -1 0
47 1 1 -1.0149012106249497e-01 -2.0049845821265762e+00 6.7193704654907203e+00 1.0793150411634258e+01 0 0 0
55 1 1 1.4786390205812444e-01 -1.2547747084975058e+00 -5.5272263930981058e-02 1.0432408466312348e+01 0 0 0
63 1 1 1.4010890574054585e-01 -2.2185694499701940e+00 8.0318456357448582e+00 1.0380703559064653e+01 0 0 0
133 1 1 1.0676161768164449e-01 -3.8431200808987844e+00 8.4992348169946581e+00 1.5407455006171492e+01 0 0 0
141 1 1 1.1363502098388209e-01 -1.8400569110697429e+00 3.7905514669190419e+00 1.6128316984070203e+01 0 0 0
149 1 1 -1.1032588490598685e-01 -2.6183920115334947e+00 9.0316175854953222e+00 1.5862963455560534e+01 0 0 0
157 1 1 -1.2590587473113229e-01 -1.4333013345997081e+00 4.6468593279153376e+00 1.7192177038075016e+01 0 0 0
165 1 1 1.6246309495960662e-01 -2.6596856229859958e+00 1.0207403446666135e+01 1.6671658610967317e+01 0 0 0
173 1 1 1.2984409680464973e-01 -2.3967358869894118e+00 5.3106709009789377e+00 1.7953394792827780e+01 0 0 0
215 1 1 -3.4495963441715377e-01 -3.0530572941433740e+00 1.1057746485671778e+00 4.2108911407347644e+00 0 0 0
239 1 2 4.3488857567167832e-05 -8.5161079306038134e-01 4.8866847169349459e+00 1.2049471690897152e+01 0 0 0
247 1 2 2.0188354723054067e-03 -2.2152938559267144e+00 -1.6560842111346963e-01 9.1638133735569749e+00 0 0 0
255 1 2 -1.2304650519759076e-02 -3.2436720793295839e+00 8.4279556433911296e+00 9.2979356467937748e+00 0 0 0
277 1 2 -6.2631889165868787e-03 -3.7271931709688375e+00 7.1986103069571845e+00 1.4494781748497930e+01 0 0 0
285 1 2 -1.3615072607806103e-03 -6.9769041556438882e-01 3.0805623291506157e+00 1.5404689680498873e+01 0 0 0
301 1 2 -1.7681030431240270e-02 -3.7499764464032248e+00 5.5440019241167855e+00 1.2620089027675678e+00 0 0 1
319 1 2 -1.3203909247783183e-02 -2.5194151325925560e+00 4.3894348294503596e+00 7.2019220566415223e+00 0 0 0
351 1 3 -1.5294232138224109e-01 -1.2959356931627317e+00 4.0735450243171192e+00 1.1117650334747028e+01 0 0 0
375 1 3 -1.2739732825772912e-01 -1.7101253645681145e+00 1.9757782972429383e-01 7.9742190207664256e+00 0 0 0
383 1 3 -1.3144202482010042e-01 -3.1601023147814606e+00 9.5948256910791976e+00 8.7183538992725609e+00 0 0 0
429 1 3 -1.7896747462419024e-01 -9.1813576979440192e-01 2.3098253561981217e+00 1.4369367226712980e+01 0 0 0
437 1 3 -1.6765854804420174e-01 -2.5987661703420377e+00 6.8055105834951233e+00 1.4030198052704275e+01 0 0 0
477 1 3 -1.5692866245297701e-01 -4.5940205560152343e+00 6.0861291065175873e+00 2.0756738886670010e+00 0 0 1
495 1 3 -1.4467838648947928e-01 -2.0856601232748915e+00 3.5541267629893234e+00 8.0830538877351792e+00 0 0 0
503 1 3 -2.0479600478752930e-01 -3.9677351331103510e+00 1.2596348060936574e+01 3.4973081990638599e+00 0 -1 0
511 1 3 -1.8267169497517080e-01 -1.9504388693054802e+00 4.4404508551266115e+00 6.0223229115473851e+00 0 0 0
567 1 4 2.2212185794717779e-01 -4.2199645828999479e+00 1.1920296777149392e+01 1.1362949193895020e+01 0 -1 0
575 1 4 2.0169815193095300e-01 -2.6752041464877663e+00 5.9438869153267619e+00 1.0417860987735800e+01 0 0 0
615 1 4 2.6131500453452794e-01 -2.5442639845728765e+00 5.4343331691222918e-01 3.3961109334488802e+00 0 0 0
631 1 4 1.9321857358958211e-01 -2.3083256875889955e+00 1.8170932324770881e+00 4.6324816561392970e+00 0 0 0
645 1 4 1.9400935370585215e-01 -1.6770214458877435e+00 8.6078574394580443e+00 1.5641247897413693e+01 0 0 0
653 1 4 2.4428448148545912e-01 -3.6233509919119156e-01 4.7390014567651901e+00 1.7395709075791494e+01 0 0 0
599 1 4 2.4534775500688955e-01 -3.8628466887033972e+00 1.7660059804163484e+00 3.8173821986232501e+00 0 0 0
360 1 3 -1.2359241656803435e-01 -5.3486568648040738e+00 1.2713174610551246e+01 9.1924755753479079e+00 1 -1 0
23 1 1 1.0048089002104503e-01 -2.6008532526466368e+00 1.2749536400141046e+01 1.2491196714831702e+01 0 -1 0
231 1 2 -2.5715952543812457e-02 -2.6061697040133200e+00 1.1570382147981363e+01 1.3474084924372498e+01 0 0 0
327 1 3 -1.7204326810674411e-01 -1.7754170284758806e+00 1.1604559153163073e+01 1.4476783490823367e+01 0 0 0
424 1 3 -2.1120775149400034e-01 3.4311695313128837e+01 2.9352146181639860e+00 4.9636557211681556e+00 0 0 0
343 1 3 -1.7488935448535237e-01 -3.4543201411229845e+00 1.0563098350072178e+01 1.3351639170959434e+01 0 0 0
421 1 3 -1.7664347868758920e-01 3.4286875675053217e+01 6.5122709057462878e+00 1.4297511981697408e+01 -1 0 0
31 1 1 1.2880023002957039e-01 -9.6651306597824416e-01 6.4146183213376151e+00 1.1694050227933934e+01 0 0 0
71 1 1 -1.1563003993935859e-01 -2.5365340609087195e-01 9.5287113483718500e-01 1.0425071047462380e+01 0 0 0
79 1 1 -1.2847257424293104e-01 -1.3063583552891211e+00 9.0494143733015591e+00 1.0834545552343540e+01 0 0 0
105 1 1 -2.9963325442452804e-01 1.9248623449507294e+00 5.6124904925942509e+00 4.1212729645117960e+00 0 0 0
265 1 2 5.9642643734559506e-03 -1.7749395760459041e-01 7.8974986292982772e+00 3.4223803743132271e+00 0 0 0
335 1 3 -1.6000940243147777e-01 -2.8019626728371172e-01 4.6044758846098546e+00 1.3163079979732583e+01 0 0 0
401 1 3 -1.6222182269058849e-01 1.5357119928593512e+00 1.7934867733540929e+00 1.8722027667006273e+01 0 0 -1
409 1 3 -1.4067534340655904e-01 -7.2048379244005023e-01 6.7308033763664801e+00 3.3577576067822354e+00 0 0 0
513 1 4 2.8511840712245012e-01 4.3087210447040292e-01 -7.2913106595723531e-01 1.6895788064518600e+00 0 1 0
521 1 4 1.9454899344194504e-01 1.8155510614469534e+00 5.5315783731618238e+00 5.2304344538892611e+00 0 0 0
537 1 4 2.0791096334059586e-01 2.6124742775033729e+00 4.8198372694157987e+00 3.8352559199044465e+00 0 0 0
553 1 4 2.1287632350617106e-01 8.9157116525756930e-01 5.3203722578729602e+00 3.7462641408208275e+00 0 0 0
583 1 4 2.6311292146383980e-01 -2.7426030226585407e-01 1.7460728021161618e+00 9.6294332238438614e+00 0 0 0
591 1 4 2.2375286650940146e-01 -1.4269557198735443e+00 1.0058441092006039e+01 1.0558484815282617e+01 0 0 0
7 1 1 3.7934200132868218e-02 5.4703906679859093e-01 4.7246003318936358e-02 1.2516262346283783e+01 0 0 0
15 1 1 4.0042631790780728e-02 -1.6273620449513082e-01 7.4078918398549183e+00 1.2249402006035760e+01 0 0 0
87 1 1 1.2606073048787225e-01 6.9571281608982538e-01 9.9329861298574773e-01 1.1471474726315515e+01 0 0 0
95 1 1 1.0689455049269872e-01 -3.4062797899341302e-01 8.7665233773861573e+00 1.1794432825734212e+01 0 0 0
97 1 1 -4.0765955603041742e-01 9.3624463026812421e-01 -5.6907819846432206e-01 2.6192160716654116e+00 0 1 0
257 1 2 -2.3245998615150577e-02 2.6021641633345518e+00 2.5618477749240371e+00 1.8759804126206802e+01 0 0 -1
293 1 2 5.9021545555505116e-03 -1.2762692857036300e+00 1.0747696410365883e+01 1.7124508807076893e+01 0 -1 0
385 1 3 -1.8241431283246895e-01 2.6676219393571525e+00 3.6865782676369427e+00 1.8138687736979982e+01 0 0 -1
445 1 3 -1.9028106834458189e-01 4.9908604934275713e-01 3.2170922358336345e+00 1.5916515357674886e+01 0 0 0
453 1 3 -1.5951431559809440e-01 -1.9410666434625501e-01 1.0026375058695219e+01 1.7071368187632750e+01 0 0 0
459 1 3 -1.3307694440202777e-01 1.3711249810102761e+00 5.8365257723329549e+00 9.8124225948292487e+00 0 0 0
461 1 3 -1.1455942171872463e-01 -2.5201983192162491e+00 5.9498148929393881e+00 1.3015375891222261e+00 0 0 1
469 1 3 -1.3433123189892685e-01 -1.2944547686996197e+00 1.1920466452096456e+01 1.7703534522079487e+01 0 -1 0
529 1 4 2.5159673387472936e-01 2.5101723962839628e-01 -3.4339924677199785e-01 3.3993182464261844e+00 0 1 0
545 1 4 2.5815851988992855e-01 -8.9795559969201033e-01 1.2302078737372796e+01 2.8839959687079419e+00 0 -1 0
103 1 1 -3.5999477803171664e-01 1.3859607048283031e+00 1.4190869879979684e-01 1.3824478458135690e+01 0 1 0
111 1 1 -3.2964633006572530e-01 9.5448356127327205e-01 7.1696232266601170e+00 1.3327725490237762e+01 0 0 0
519 1 4 2.7777400131567159e-01 -1.5507778582002141e-01 1.3188487666283741e+01 1.4014621322071251e+01 0 0 0
535 1 4 2.1507430041097592e-01 2.0055184361014273e+00 1.0095000571615467e+00 1.3755161466177894e+01 0 1 0
543 1 4 2.4095377387963041e-01 1.9498902359202894e+00 7.3695688239105861e+00 1.2945814482112626e+01 0 0 0
551 1 4 2.4460635962757887e-01 7.4482587636469733e-01 2.8600183882488883e-01 1.4714165222673525e+01 0 0 0
559 1 4 1.7942451008398747e-01 8.1138434126554815e-01 7.7513691463830314e+00 1.4255595750515420e+01 0 0 0
9 1 1 4.0123637442522134e-02 2.3543750553245282e+00 7.0596172024790587e+00 3.6574757149890940e+00 0 0 0
329 1 3 -1.8640590728360812e-01 4.4894612965675309e+00 5.2795572121479788e+00 4.5261131762410249e+00 0 0 0
639 1 4 2.6944585768994889e-01 -4.0631210160157982e+00 7.2130984816141792e+00 4.9207084772699901e+00 0 0 0
120 1 1 3.6898503287196217e-02 -3.7632303536536131e+00 1.1065806558425562e-01 5.1583959474561230e+00 1 0 0
181 1 1 -1.0715878935179203e-01 -3.8669272286907121e+00 1.0915183416785272e+01 1.6864169325188790e+01 0 0 0
393 1 3 -1.3353403108441525e-01 -8.7799339268940546e-01 8.9682068527351078e+00 3.1959191213135605e+00 0 0 0
451 1 3 -1.2596246451598148e-01 -1.1860479522678835e-01 1.2646682731834005e+01 8.5472306079884390e+00 0 0 0
263 1 2 1.2854302058799810e-02 1.6691155899850232e+00 2.1834052330390228e+00 1.1327367485758966e+01 0 0 0
391 1 3 -1.3819282580320069e-01 2.0050826767206149e+00 2.5357764482174554e+00 1.0077774101104177e+01 0 0 0
299 1 2 -1.5410502453264883e-02 2.5165780369955373e+00 6.4439429934621542e+00 9.6061653825556945e+00 0 0 0
475 1 3 -1.4271719274137720e-01 2.7884504614042331e+00 7.5350390175213873e+00 1.0269141610106555e+01 0 0 0
25 1 1 1.0600950283329491e-01 3.7439236450191142e+00 7.3903287775318409e+00 3.5466901197695573e+00 0 0 0
89 1 1 1.0884642115840509e-01 1.3997344739946733e+00 8.0314088138617770e+00 3.3440595070126737e+00 0 0 0
233 1 2 -1.4500331973565424e-02 4.8472244281728347e+00 6.4521776999253015e+00 3.9650787890683814e+00 0 0 0
291 1 2 -5.1094957461361966e-03 1.0736797632306896e+00 1.3159729011257781e+01 8.5658131866276328e+00 0 -1 0
467 1 3 -1.2340415210858385e-01 3.6815482617871695e+00 7.4519799259325170e-02 9.5859171011739495e+00 0 0 0
643 1 4 2.4177493608233419e-01 1.1197387347066048e+00 1.0537030517187116e+01 7.5894240911800024e+00 0 0 0
651 1 4 2.5946653716961049e-01 2.5599493077482878e+00 4.0228766399297475e+00 8.2088496707626604e+00 0 0 0
1 1 1 2.7459838919460015e-02 2.0337535552781567e+00 4.9853520352540959e-01 2.5577374520791993e+00 0 0 0
81 1 1 9.5000386817924554e-02 1.9305488588621067e+00 1.6252339291732225e+00 1.6989148758872332e+00 0 0 0
321 1 3 -1.6036937983606514e-01 1.8062419891829240e-01 1.2286332407306020e+01 4.7566734786474907e+00 0 0 0
407 1 3 -1.6576304987391383e-01 2.1612960584681806e+00 2.7404266945583711e+00 1.2368716910593189e+01 0 0 0
497 1 3 -1.8300895950448018e-01 3.1914498815570784e+00 9.0930680967665767e-02 1.6143031029962479e+01 0 0 0
527 1 4 2.2476967465977832e-01 1.0304837668997249e+00 6.1277940880070814e+00 1.3613093993870665e+01 0 0 0
505 1 3 -1.6795605927263169e-01 2.3162919260797206e+00 7.5402711224557040e+00 1.7463449318830662e+01 0 0 0
147 1 1 -1.1630117502133620e-01 2.0034813615284301e+00 1.1070736708669617e+01 7.3432407303390983e+00 0 0 0
435 1 3 -1.5013176645694842e-01 1.7949873452669811e+00 8.2603585340512389e+00 6.6937204962877290e+00 0 0 0
443 1 3 -1.6554358672719183e-01 2.9031140507805171e+00 2.5254832194150607e+00 5.9563270139409941e+00 0 0 0
41 1 1 -1.4851958255024891e-01 4.0946082724427457e+00 8.6749397486408633e+00 3.0143590667889124e+00 0 0 0
57 1 1 1.0573796524104669e-01 3.1307436929715209e+00 9.6500783736598983e+00 2.7069683290358268e+00 0 0 0
73 1 1 -1.2251469628847482e-01 1.8020919639084827e+00 9.3519282291648551e+00 2.9904805146682372e+00 0 0 0
163 1 1 1.6262081384262100e-01 2.1806298491635263e+00 1.2430681469886490e+01 7.7106015937393106e+00 0 0 0
271 1 2 -1.0786797561251012e-02 4.7764233451055782e-01 1.0019607663923647e+01 1.2370844002467720e+01 0 0 0
399 1 3 -1.5039846235356760e-01 3.5016609105513341e-01 1.1209531392573375e+01 1.1827213131296778e+01 0 0 0
577 1 4 2.0282031586481947e-01 4.7567647211552968e+00 4.0895744167221526e+00 1.8937566577502317e+01 0 0 -1
585 1 4 2.0735986579231550e-01 1.0170516730910766e+00 1.0119313917610018e+01 2.8267552105305791e+00 0 0 0
17 1 1 1.0805109326005871e-01 3.1918766568467261e+00 3.7143249746308760e-01 3.3897367304597039e+00 0 0 0
65 1 1 -1.3617707214230387e-01 2.9811352963309572e+00 2.5742956847010454e+00 1.6605549584646369e+00 0 0 0
131 1 1 1.2450672131787023e-01 2.9991675438333774e+00 1.0359586119429405e+01 6.7020066658553876e+00 0 0 0
139 1 1 1.1790458066667189e-01 4.4225746499454432e+00 4.0144809735151261e+00 7.2446403983587206e+00 0 0 0
155 1 1 -1.4783277992661953e-01 3.4255023481857481e+00 4.5457770370875616e+00 8.0483298778032371e+00 0 0 0
171 1 1 1.6669830173320524e-01 3.5974459872920619e+00 5.7905325518351383e+00 8.7358011325278149e+00 0 0 0
179 1 1 -1.1560198475253212e-01 3.3699035389717547e+00 1.3093011686628394e+01 7.3972675164752220e+00 0 0 0
225 1 2 -1.3848894730763089e-02 1.1848084316941137e+00 1.3045384143634976e+01 4.3895911564089189e+00 0 0 0
275 1 2 -3.3312916357480973e-02 2.9304929275485012e+00 8.8646650759293628e+00 6.4393567586946521e+00 0 0 0
283 1 2 -2.1125069802663959e-03 4.0925961830815796e+00 2.6387647936129124e+00 6.5270187554756101e+00 0 0 0
345 1 3 -1.6635779328501121e-01 6.0756341553215032e+00 6.8561095770163396e+00 4.0627562254341019e+00 0 0 0
415 1 3 -1.6038126911269587e-01 1.5023078938538470e+00 9.8223185480929374e+00 1.3155595180752524e+01 0 0 0
419 1 3 -1.7607708785064474e-01 4.0345152441531340e+00 8.1385392746764005e+00 6.3202434375196077e+00 0 0 0
427 1 3 -1.9498585839321664e-01 4.9785408542549359e+00 1.7672307482325573e+00 6.3930932073154452e+00 0 0 0
481 1 3 -1.7390423288477069e-01 2.3010937610430027e+00 1.3243999132583895e+01 1.7797081786906901e+01 0 0 0
569 1 4 1.8111518586757244e-01 5.1290335332863517e+00 8.9471412117171134e+00 2.7939654128856852e+00 0 0 0
659 1 4 2.3769551585437093e-01 5.7489312309415395e+00 2.8446633142677213e-01 7.7889251406810702e+00 0 0 0
33 1 1 -1.2852635466564169e-01 4.2824069020483613e+00 1.2617497823747796e+00 3.2632683059918604e+00 0 0 0
43 1 1 -1.1954303269763877e-01 6.8701261780129528e+00 6.4392134404770944e+00 1.2081308130439732e+01 0 0 0
49 1 1 1.2140996857521646e-01 4.1640279578643540e+00 2.3442542174001422e+00 2.3674224320761450e+00 0 0 0
67 1 1 -1.2827662860349695e-01 4.6873007413409011e+00 1.2746623870888317e+01 1.1576608702579110e+01 0 0 0
115 1 1 3.3831094673603589e-02 4.1720119805193789e+00 1.1095619388064456e+01 6.3340483609485529e+00 0 0 0
121 1 1 2.9128768217938261e-02 4.5003465046610405e+00 9.5620884617284041e+00 1.6896160296183837e+01 0 0 0
123 1 1 5.1224122120686999e-02 5.6614233209526592e+00 4.6632328651779744e+00 7.1726412554474237e+00 0 0 0
185 1 1 -1.2295580445580456e-01 5.9053844794672870e+00 8.0050822988704375e+00 1.8027674289499792e+01 0 0 0
187 1 1 -1.1762411476106555e-01 4.8079491287968370e+00 6.4887658843124569e+00 8.5087506883099593e+00 0 0 0
195 1 1 1.1745799137189344e-01 4.3616487374684505e+00 1.2411564343215037e+01 6.6668298717214212e+00 0 0 0
201 1 1 9.4600826533632387e-02 4.5982758399469272e+00 8.3804205750514207e+00 1.7641388036054735e+01 0 0 0
203 1 1 1.1694049597754139e-01 5.7932908105135539e+00 6.0083594201274932e+00 7.6265227663017612e+00 0 0 0
211 1 1 -3.5495405030711302e-01 5.3555560841476719e+00 1.0411460888128474e+01 5.5990053361493706e+00 0 0 0
217 1 1 -3.7898720933124985e-01 3.0456031707273818e+00 1.0000800349432975e+01 1.6627836099978303e+01 0 0 0
219 1 1 -3.4630515724714589e-01 6.8370557243872625e+00 3.8838048364763109e+00 6.5512610947021122e+00 0 0 0
241 1 2 8.2585275124422847e-05 5.5021736218125694e+00 3.1412407265367639e+00 2.1782346711451055e+00 0 0 0
243 1 2 1.4934914639136918e-03 6.0530908044314202e+00 8.5571356811007360e-01 1.3086884938428962e+01 0 1 0
249 1 2 -2.8158196626928957e-02 3.5418507543080118e+00 1.1070069837315707e+01 2.1930858767814376e+00 0 0 0
251 1 2 -1.4582740462007450e-02 6.9564023981791330e+00 4.1766223197369881e+00 1.0880339969624906e+01 0 0 0
305 1 2 -1.6105765236596559e-02 4.2506785787673493e+00 3.3557270901000669e-01 1.6886078317326017e+01 0 0 0
313 1 2 -8.0494762217792372e-03 3.4848171127845760e+00 7.3746459284862746e+00 1.8028240426684690e+01 0 0 0
315 1 2 4.5103858202111616e-04 7.1039661050869434e+00 6.8962457236442818e+00 7.3793927108504143e+00 0 0 0
337 1 3 -1.6904083705476372e-01 2.4020333227683848e+00 1.2822512438604786e+01 4.8571456423172403e+00 0 0 0
347 1 3 -1.3469712754989863e-01 5.5558922006913694e+00 8.9853245007228892e+00 1.2564645408214327e+01 0 0 0
355 1 3 -1.6341130158422298e-01 6.3393849175523744e+00 1.9159804986743403e+00 1.3734818924227936e+01 0 1 0
361 1 3 -1.4561004109248304e-01 4.8253534028603884e+00 1.1441029873224313e+01 2.1351124871036662e+00 0 0 0
363 1 3 -1.4665509880260583e-01 5.7488424971052288e+00 4.4318052874968563e+00 1.0410534770665606e+01 0 0 0
369 1 3 -1.4441546076802209e-01 5.5550485743843581e+00 4.1182626227191896e+00 1.3508111807978205e+00 0 0 0
371 1 3 -1.4251543350637946e-01 4.8477423293554009e+00 3.3536753427224575e-01 1.3145247581996113e+01 0 1 0
377 1 3 -1.6115538025451914e-01 2.7102335900385208e+00 1.1791879774126294e+01 1.5677036870827061e+00 0 0 0
379 1 3 -1.3012452338980951e-01 7.5679567036581119e+00 3.0841433646642562e+00 1.0552377124967743e+01 0 0 0
387 1 3 -1.4848266103594526e-01 4.0500074496960821e+00 1.0742277143564010e+01 9.7950851129921137e+00 0 0 0
425 1 3 -1.5172738560971127e-01 4.3486967764802795e+00 1.2220235250431127e+01 1.5218512034026686e+01 0 0 0
489 1 3 -1.7356124832075151e-01 3.7367249274087344e+00 6.3259026644416627e+00 1.8719589914947761e+01 0 0 0
491 1 3 -1.5746482149037089e-01 7.1126292082311711e+00 8.0372615057998402e+00 7.9518553353790011e+00 0 0 0
561 1 4 2.4060454176246934e-01 5.1650226337930123e+00 1.0640897889412333e+00 3.8358170367897011e+00 0 0 0
571 1 4 2.2596326125720506e-01 5.8766801681623315e+00 6.6438170517518609e+00 1.1679133246503037e+01 0 0 0
579 1 4 2.5697486150976534e-01 3.6489370125252667e+00 1.2615743266184371e+01 1.1361730731550468e+01 0 0 0
595 1 4 2.5075008982626468e-01 5.9993368233207010e+00 9.9161735681473573e+00 6.3320050917695392e+00 0 0 0
601 1 4 2.2696233405268590e-01 2.5440606547301314e+00 9.2794882266611509e+00 1.6067597649972154e+01 0 0 0
603 1 4 2.4513019561418067e-01 7.7857431527275462e+00 4.4672458156356551e+00 6.6371420021981544e+00 0 0 0
609 1 4 2.6237248523159207e-01 2.6044768436487438e+00 2.1394822082883920e+00 1.5935925108779161e+01 0 0 0
617 1 4 2.3717129360743289e-01 2.4921217657518477e+00 9.9739933920201054e+00 1.7557653291514541e+01 0 0 0
619 1 4 2.4408636789454483e-01 6.9250806645437617e+00 2.8942122180877794e+00 6.9942241622396368e+00 0 0 0
627 1 4 2.5358412181095580e-01 5.9955041054486768e+00 1.1142421012267729e+01 5.0551476439760714e+00 0 0 0
633 1 4 2.7611525633499484e-01 2.8935229958405060e+00 1.0947586244068422e+01 1.6116512283935847e+01 0 0 0
635 1 4 2.2035974688469179e-01 6.7190072069544060e+00 3.6076803830378426e+00 5.4863754050972977e+00 0 0 0
657 1 4 2.5462728594567113e-01 6.8275799611555943e+00 5.0738843700059544e-01 1.7641105389182272e+01 0 1 0
665 1 4 2.0968281176877035e-01 6.1075378298904006e+00 7.0693042871507412e+00 1.8576084075540926e+01 0 0 0
667 1 4 2.4171620732628593e-01 4.9674909886662748e+00 7.4962420113105699e+00 8.9192602502281417e+00 0 0 0
27 1 1 1.0849050423327958e-01 7.4974285936886256e+00 7.3915505398517540e+00 1.2888514744092387e+01 0 0 0
51 1 1 1.4505417140895477e-01 7.2391415551238065e+00 9.8129909804101079e-03 1.2454841441874441e+01 0 1 0
59 1 1 1.5389088507218945e-01 7.5810229832148650e+00 5.2302069113607423e+00 1.1806168222206569e+01 0 0 0
75 1 1 -1.2947264771152217e-01 8.7614516175996862e+00 4.8812973740221288e+00 1.2442742078722759e+01 0 0 0
83 1 1 1.1563373074949414e-01 5.7463498568139597e+00 1.2076579644978267e+01 1.0889861337440921e+01 0 0 0
113 1 1 4.1448364248284728e-02 4.7393295312814221e+00 2.7672600401255321e+00 1.5989340882800743e+01 0 0 0
137 1 1 1.2115293705802577e-01 5.5307695819439520e+00 1.0448137493177253e+01 1.6553425449730582e+01 0 0 0
153 1 1 -1.4254872273714220e-01 6.7883993353192658e+00 1.0086010877168015e+01 1.6994467855682217e+01 0 0 0
161 1 1 1.4315255347484840e-01 7.3365677391288227e+00 2.5061928408067722e+00 1.7083798397696796e+01 0 0 0
169 1 1 1.2909148868640996e-01 6.9426911543129428e+00 8.8565931490739764e+00 1.7661545308185964e+01 0 0 0
177 1 1 -1.3807461796926473e-01 6.4242919304043600e+00 1.4427803716524248e+00 1.7194611829843680e+01 0 0 0
193 1 1 1.0663737764749116e-01 5.1373040476372998e+00 1.5835257667041036e+00 1.6660931427206350e+01 0 0 0
209 1 1 -3.5148134757933097e-01 3.2475065255106919e+00 2.9123992050799030e+00 1.5527728665910820e+01 0 0 0
235 1 2 -1.3504240695416697e-02 6.7989971849375204e+00 8.8101623703123160e+00 1.2942259051639160e+01 0 0 0
259 1 2 -1.1150102197044875e-02 5.3162115933742387e+00 1.0970204935683306e+01 9.8625169261681407e+00 0 0 0
281 1 2 -6.2760783738078328e-03 5.4081093970564611e+00 1.1867930654695790e+01 1.5820979846657039e+01 0 0 0
297 1 2 -2.9592689470882023e-02 8.4056871269959430e+00 8.4590179254374895e+00 1.7987368889968003e+01 0 0 0
307 1 2 -1.6381767296144666e-02 7.8983755247591034e+00 -5.1346054905879357e-01 6.4419995558898764e+00 0 1 0
331 1 3 -1.8008723013727290e-01 7.4255187047916200e+00 9.8022618045026704e+00 1.3465276161426058e+01 0 0 0
353 1 3 -1.5821156867277075e-01 6.5266454026532372e+00 2.9478080028772586e+00 2.9912985551656819e+00 0 0 0
389 1 3 -1.4172463353147019e-01 9.6671383196486094e+00 1.1401491279049118e+01 1.7225486948201643e+00 0 0 0
403 1 3 -1.8134452148232966e-01 6.2185432129165381e+00 1.0201235628268606e+01 9.2848854680118684e+00 0 0 0
405 1 3 -1.4351951573064070e-01 7.7160296849515548e+00 1.2513755894091982e+01 2.1483449468131139e+00 0 0 0
465 1 3 -1.1180968178285634e-01 9.1712787121444386e+00 1.1091056421991596e+00 1.8178201595776876e+01 0 1 0
473 1 3 -1.3553687606549106e-01 8.7370810143113431e+00 7.4699282719388096e+00 1.8792543556018039e+01 0 0 0
483 1 3 -1.8063421648598810e-01 7.9383599207856603e+00 7.0081897119682379e-01 6.8882915510027187e+00 0 0 0
499 1 3 -1.9524586398942301e-01 6.5452553256143835e+00 1.2874075659681001e+01 5.6266251490560739e+00 0 0 0
507 1 3 -1.7899913075447849e-01 7.9119233562714335e+00 6.5792287129815143e+00 6.4095708271683645e+00 0 0 0
587 1 4 2.4601571740939102e-01 9.2546761626864917e+00 3.9371640964410011e+00 1.2317114718897573e+01 0 0 0
593 1 4 2.3897610375948833e-01 3.1423612021913749e+00 2.9376200293722969e+00 1.4425755703547090e+01 0 0 0
611 1 4 2.0526292973250101e-01 4.8915945893467470e+00 9.6677164820437547e+00 4.9080095021677632e+00 0 0 0
625 1 4 2.6002954146284152e-01 2.8057983011817620e+00 3.9060423056562614e+00 1.5950856533453775e+01 0 0 0
3 1 1 3.5325408123682761e-02 7.0879120868939305e+00 1.2317822220450477e+01 1.1226511153352403e+01 0 0 0
5 1 1 4.4507934665170654e-02 1.1347225235948837e+01 6.6503764080401528e-01 3.8037951420312197e+00 0 1 0
11 1 1 3.6116264414583037e-02 8.7070932890677231e+00 7.0248368373723178e+00 1.3541065325115721e+01 0 0 0
19 1 1 1.2144503051873322e-01 7.3896269803964127e+00 1.3255113852118495e+01 1.2244606671164755e+01 0 0 0
35 1 1 -1.1481572018837112e-01 8.5976414723203352e+00 2.6074830309060149e-01 1.2739754756050838e+01 0 1 0
85 1 1 1.2461455997916623e-01 1.1971669401388482e+01 -5.4311831119198140e-01 3.3472127238489446e+00 0 1 0
91 1 1 1.1409743200959233e-01 9.3276913763866673e+00 5.7769032288971625e+00 1.3348716128495440e+01 0 0 0
99 1 1 -3.6387924558125828e-01 8.2623879735127108e+00 1.1727736256696478e+01 1.0400588556300249e+01 0 -1 0
101 1 1 -3.8629751587478989e-01 9.8977374440472943e+00 1.0987094581680246e+00 3.3412435700116205e+00 0 0 0
107 1 1 -3.5540892932688900e-01 9.4271599587147428e+00 8.1272939186191309e+00 1.4364832906534019e+01 0 0 0
109 1 1 -3.5355275356557275e-01 9.2336025942706321e+00 6.6154142268653668e+00 3.4978468393318658e+00 0 0 0
129 1 1 8.9787208317142916e-02 5.6669383608192074e+00 3.8492474802513392e+00 1.6006241587507837e+01 0 0 0
145 1 1 -1.1853054185799179e-01 6.9676922592118054e+00 3.7254352249572920e+00 1.6512882402189106e+01 0 0 0
167 1 1 1.6096380560263457e-01 1.2144572318197330e+01 3.4354068761583987e+00 9.1335451749659846e+00 0 0 0
227 1 2 -1.1189006792255800e-02 1.1117795118273499e+01 -1.8359515905558088e-01 1.2633930709633931e+01 0 0 0
261 1 2 -3.6092218664083367e-03 8.9923001336996951e+00 1.2298977952339506e+01 2.3965340198697049e+00 0 0 0
267 1 2 -4.7977611675685816e-03 1.0585518868771032e+01 5.3379308791240074e+00 1.4128028856428223e+01 0 0 0
269 1 2 -2.8602612939044435e-02 1.0275497862044318e+01 4.3039714824248119e+00 2.0891187382042862e+00 0 0 0
273 1 2 -8.4190061997141373e-03 5.3491039205094646e+00 5.3279149942000545e+00 1.5461777723673443e+01 0 0 0
289 1 2 -4.6454533376698755e-03 8.7612685505664807e+00 2.2556145189406251e+00 1.7699209882769559e+01 0 1 0
295 1 2 -4.2039520003025084e-03 1.0689578294418780e+01 3.0991847040444593e+00 9.6846606746966728e+00 0 1 0
303 1 2 -2.6257904732903646e-02 1.1124598968120450e+01 6.9959929241020271e+00 1.0371803393532675e+01 0 0 0
323 1 3 -1.4735253406417881e-01 1.2194695972566702e+01 -4.0268208224370294e-01 1.1930972419058689e+01 0 0 0
333 1 3 -1.6280977974953381e-01 9.8709726368656021e+00 9.0000998716667446e+00 4.4870905422278931e+00 0 0 0
339 1 3 -1.1320358183213801e-01 1.1219752050728232e+01 4.4771271880835384e-01 1.3749838560030943e+01 0 0 0
367 1 3 -1.8692139473333630e-01 1.1855845653103451e+01 9.6057060852093343e+00 1.2272709097796907e+01 0 0 0
384 1 3 -1.4379763794613182e-01 1.2302121140613822e+01 1.1710697716960230e+01 1.1504603277842739e+01 0 0 0
395 1 3 -1.3008736751102820e-01 1.0859748722896907e+01 4.0374364511992020e+00 1.4087988091911610e+01 0 0 0
397 1 3 -1.4808162971803224e-01 8.9703097794642979e+00 4.4210451114901286e+00 2.1493334033335612e+00 0 0 0
411 1 3 -1.7021315398795972e-01 1.1314950261351221e+01 6.0804033246250597e+00 1.4865157903336618e+01 0 0 0
417 1 3 -1.7643123017112938e-01 4.2119763781514914e+00 5.5311084497574781e+00 1.4888195153654971e+01 0 0 0
433 1 3 -1.8507389148302122e-01 6.2366281849563503e+00 6.2543070020992220e+00 1.5652099121204122e+01 0 0 0
441 1 3 -1.3111020451578487e-01 6.4761174031554578e+00 1.2625730099120116e+01 1.5745841730758320e+01 0 0 0
447 1 3 -1.4701624748425970e-01 9.8873366507660858e+00 1.0910140427680023e+01 7.4267124876633455e+00 0 0 0
449 1 3 -1.0353778811415479e-01 9.6316020237250619e+00 3.2156552631174424e+00 1.7676328738924887e+01 0 0 0
455 1 3 -1.2761708206239630e-01 9.7279322445006429e+00 3.9269503242486428e+00 9.4200323391789613e+00 0 0 0
457 1 3 -1.6502497576986253e-01 9.2914606068913237e+00 9.3062690420116709e+00 1.7558483800460991e+01 0 0 0
463 1 3 -1.5020003192136450e-01 9.8245409773691801e+00 7.1448822961329483e+00 1.0416594933993585e+01 0 0 0
471 1 3 -1.4105901759190753e-01 1.0366590796839384e+01 1.9606148122976244e+00 1.0218650539347532e+01 0 1 0
479 1 3 -1.3398287921323251e-01 1.1677827548291141e+01 6.0991766224217585e+00 1.1112506844666308e+01 0 0 0
509 1 3 -1.6292513836448133e-01 1.2932771876910884e+01 7.2523829787800684e+00 1.7764616428413461e+01 0 0 0
515 1 4 2.5618060143470150e-01 7.9343143597324275e+00 1.0913357449040383e+01 9.7860174526068597e+00 0 -1 0
517 1 4 2.6933547325318996e-01 9.1809434908765954e+00 2.8209512212250298e-01 3.3412174542259145e+00 0 0 0
523 1 4 2.3511903984417398e-01 9.2056244968206276e+00 8.2045375966264054e+00 1.5420415326300439e+01 0 0 0
525 1 4 2.8312142582375793e-01 8.8115250307622901e+00 7.4371758602577041e+00 4.1240605941866697e+00 0 0 0
531 1 4 2.2072670022470509e-01 9.0435766201882721e+00 1.1393309279949307e+01 1.1071527715782349e+01 0 -1 0
533 1 4 2.5125316584533297e-01 9.5376599584903587e+00 1.8391069196408010e+00 4.0757023415793361e+00 0 0 0
539 1 4 2.2002854383440482e-01 9.3079057666686751e+00 9.0951007131749435e+00 1.3940947094679681e+01 0 0 0
541 1 4 2.6133979792243994e-01 8.9762637498532243e+00 6.9079748982064011e+00 2.4340135221977071e+00 0 0 0
547 1 4 2.2636401133987027e-01 8.7493015740522235e+00 1.2484521449369822e+01 9.7522727782738645e+00 0 0 0
549 1 4 2.9313842307430121e-01 9.8288315280134544e+00 1.5593811195335086e+00 2.3224637121647538e+00 0 1 0
555 1 4 2.2561238792173632e-01 1.0512054921311394e+01 8.0069219817546440e+00 1.4325652942975006e+01 0 0 0
557 1 4 2.5456135063624880e-01 8.6731698761747502e+00 5.6672900728171767e+00 3.7512032014157168e+00 0 0 0
563 1 4 2.2244086544015546e-01 8.7866791428699855e+00 1.1375884821463016e+00 1.3282588755385511e+01 0 1 0
637 1 4 2.8986530452353720e-01 1.3333546015028297e+01 5.5222124516405637e+00 1.6416770766662292e+01 0 0 0
641 1 4 2.2551509489616176e-01 7.6418422527698491e+00 4.6224366010989693e+00 1.6505320544023249e+01 0 0 0
647 1 4 2.3153971146700791e-01 1.1675664622488265e+01 5.3807305934945946e+00 8.2185130810674583e+00 0 0 0
649 1 4 2.5129655324760758e-01 7.6101566172964432e+00 1.0741475852983807e+01 1.6802457939079027e+01 0 0 0
655 1 4 2.0777317050532482e-01 1.0268190341978343e+01 9.2739537549725810e+00 9.1198715613101733e+00 0 0 0
663 1 4 2.3743629009612233e-01 1.3050100080621284e+01 1.5424628610601050e+00 9.8628906496036901e+00 0 1 0