ITEM: TIMESTEP
0
ITEM: NUMBER OF ATOMS
448
ITEM: BOX BOUNDS xy xz yz pp pp pp
-2.4186686450000000e-01 1.3879200000000001e+01 8.1284706647000001e-16
0.0000000000000000e+00 1.3274800000000003e+01 -2.4186686450000000e-01
0.0000000000000000e+00 2.2679910358299999e+01 1.4036330231000001e-15
ITEM: ATOMS id type xs ys zs
1 1 0.343434 0.12071 0.263591
2 2 0.244121 0.126 0.255802
3 3 0.220211 0.153943 0.214716
4 3 0.200895 0.0975297 0.289465
5 2 0.402899 0.15072 0.218568
6 3 0.481058 0.146009 0.228959
7 3 0.367784 0.174692 0.179593
8 1 0.382943 0.0861914 0.318085
9 2 0.318585 0.0641535 0.369697
10 4 0.350436 0.0824015 0.422383
11 4 0.233375 0.0291359 0.357574
12 2 0.487984 0.0731655 0.327965
13 4 0.516045 0.0307914 0.377049
14 4 0.544688 0.104559 0.286308
15 1 0.406566 0.37071 0.486409
16 2 0.505879 0.376 0.494198
17 3 0.529789 0.403943 0.535284
18 3 0.549105 0.34753 0.460535
19 2 0.347101 0.40072 0.531432
20 3 0.268942 0.396009 0.521041
21 3 0.382216 0.424692 0.570407
22 1 0.367056 0.336191 0.431915
23 2 0.431414 0.314153 0.380303
24 4 0.399564 0.332402 0.327617
25 4 0.516625 0.279136 0.392426
26 2 0.262016 0.323165 0.422035
27 4 0.233955 0.280791 0.372952
28 4 0.205312 0.354559 0.463692
29 1 0.156567 0.37929 0.236409
30 2 0.255878 0.374 0.244198
31 3 0.279789 0.346057 0.285284
32 3 0.299105 0.40247 0.210534
33 2 0.0971015 0.34928 0.281432
34 3 0.018942 0.353991 0.271041
35 3 0.132216 0.325308 0.320407
36 1 0.117057 0.413808 0.181916
37 2 0.181414 0.435847 0.130304
38 4 0.14956 0.417599 0.077619
39 4 0.266624 0.470865 0.142427
40 2 0.0120154 0.426835 0.172035
41 4 0.983955 0.469209 0.122951
42 4 0.955312 0.395441 0.213692
43 1 0.0934337 0.12929 0.0135915
44 2 0.994122 0.124 0.00580204
45 3 0.970211 0.0960572 0.964716
46 3 0.950895 0.15247 0.0394654
47 2 0.152898 0.0992803 0.968568
48 3 0.231058 0.103991 0.97896
49 3 0.117784 0.0753077 0.929593
50 1 0.132943 0.163808 0.0680845
51 2 0.0685855 0.185847 0.119697
52 4 0.100436 0.167598 0.172383
53 4 0.983375 0.220864 0.107574
54 2 0.237984 0.176834 0.0779653
55 4 0.266045 0.219209 0.127049
56 4 0.294688 0.145442 0.0363079
57 1 0.843434 0.12071 0.263592
58 2 0.744122 0.126 0.255802
59 3 0.720211 0.153943 0.214716
60 3 0.700895 0.0975297 0.289465
61 2 0.902898 0.15072 0.218568
62 3 0.981058 0.146009 0.228959
63 3 0.867784 0.174692 0.179593
64 1 0.882943 0.0861916 0.318084
65 2 0.818585 0.0641535 0.369697
66 4 0.850436 0.0824015 0.422383
67 4 0.733376 0.0291359 0.357574
68 2 0.987984 0.0731655 0.327965
69 4 0.016045 0.0307913 0.377049
70 4 0.044688 0.104559 0.286308
71 1 0.906566 0.37071 0.486409
72 2 0.00587841 0.376 0.494198
73 3 0.0297887 0.403943 0.535284
74 3 0.0491053 0.34753 0.460535
75 2 0.847102 0.40072 0.531432
76 3 0.768942 0.396009 0.521041
77 3 0.882216 0.424692 0.570407
78 1 0.867057 0.336192 0.431915
79 2 0.931415 0.314153 0.380303
80 4 0.899564 0.332402 0.327617
81 4 0.0166246 0.279136 0.392426
82 2 0.762016 0.323165 0.422035
83 4 0.733955 0.280791 0.372951
84 4 0.705312 0.354559 0.463692
85 1 0.656566 0.37929 0.236409
86 2 0.755878 0.374 0.244198
87 3 0.779789 0.346057 0.285284
88 3 0.799105 0.40247 0.210535
89 2 0.597102 0.34928 0.281432
90 3 0.518942 0.353991 0.27104
91 3 0.632216 0.325308 0.320407
92 1 0.617057 0.413809 0.181916
93 2 0.681415 0.435846 0.130305
94 4 0.649568 0.4176 0.0776168
95 4 0.766625 0.470864 0.142427
96 2 0.512017 0.426834 0.172036
97 4 0.483957 0.46921 0.12295
98 4 0.455313 0.395441 0.213692
99 1 0.593434 0.12929 0.0135915
100 2 0.494121 0.123999 0.00580206
101 3 0.470211 0.0960574 0.964716
102 3 0.450895 0.15247 0.0394655
103 2 0.652899 0.0992804 0.968568
104 3 0.731058 0.103991 0.97896
105 3 0.617784 0.0753075 0.929593
106 1 0.632943 0.163809 0.0680848
107 2 0.568585 0.185847 0.119697
108 4 0.600436 0.167599 0.172382
109 4 0.483376 0.220864 0.107574
110 2 0.737984 0.176835 0.0779653
111 4 0.766045 0.219209 0.127048
112 4 0.794688 0.145441 0.036308
113 1 0.343434 0.62071 0.263591
114 2 0.244121 0.626 0.255802
115 3 0.220211 0.653943 0.214716
116 3 0.200895 0.59753 0.289465
117 2 0.402899 0.65072 0.218568
118 3 0.481058 0.646009 0.228959
119 3 0.367784 0.674692 0.179593
120 1 0.382944 0.586191 0.318085
121 2 0.318585 0.564153 0.369697
122 4 0.350436 0.582402 0.422383
123 4 0.233375 0.529136 0.357574
124 2 0.487984 0.573165 0.327965
125 4 0.516045 0.530791 0.377049
126 4 0.544688 0.604559 0.286308
127 1 0.406566 0.87071 0.486409
128 2 0.505879 0.876 0.494198
129 3 0.529789 0.903943 0.535284
130 3 0.549105 0.84753 0.460535
131 2 0.347101 0.90072 0.531432
132 3 0.268942 0.896009 0.521041
133 3 0.382216 0.924692 0.570407
134 1 0.367056 0.836191 0.431915
135 2 0.431414 0.814153 0.380303
136 4 0.399564 0.832402 0.327617
137 4 0.516625 0.779136 0.392426
138 2 0.262016 0.823165 0.422035
139 4 0.233955 0.780791 0.372952
140 4 0.205312 0.854559 0.463692
141 1 0.156567 0.87929 0.236409
142 2 0.255878 0.874 0.244198
143 3 0.279789 0.846057 0.285284
144 3 0.299105 0.90247 0.210534
145 2 0.0971016 0.84928 0.281432
146 3 0.018942 0.853991 0.271041
147 3 0.132216 0.825308 0.320407
148 1 0.117057 0.913808 0.181916
149 2 0.181414 0.935847 0.130304
150 4 0.14956 0.917599 0.077619
151 4 0.266624 0.970865 0.142427
152 2 0.0120154 0.926835 0.172035
153 4 0.983955 0.969209 0.122951
154 4 0.955312 0.895441 0.213692
155 1 0.0934337 0.62929 0.0135915
156 2 0.994122 0.624 0.00580203
157 3 0.970211 0.596057 0.964716
158 3 0.950895 0.65247 0.0394654
159 2 0.152898 0.59928 0.968568
160 3 0.231058 0.603991 0.97896
161 3 0.117784 0.575308 0.929593
162 1 0.132943 0.663808 0.0680846
163 2 0.0685855 0.685847 0.119697
164 4 0.100436 0.667598 0.172383
165 4 0.983375 0.720864 0.107574
166 2 0.237984 0.676834 0.0779653
167 4 0.266045 0.719208 0.127049
168 4 0.294688 0.645442 0.0363079
169 1 0.843434 0.62071 0.263592
170 2 0.744122 0.626 0.255802
171 3 0.720211 0.653943 0.214716
172 3 0.700895 0.59753 0.289465
173 2 0.902898 0.65072 0.218568
174 3 0.981058 0.646009 0.228959
175 3 0.867784 0.674692 0.179593
176 1 0.882943 0.586192 0.318084
177 2 0.818585 0.564153 0.369697
178 4 0.850436 0.582402 0.422383
179 4 0.733376 0.529136 0.357574
180 2 0.987984 0.573165 0.327965
181 4 0.016045 0.530791 0.377049
182 4 0.044688 0.604559 0.286308
183 1 0.906566 0.87071 0.486409
184 2 0.0058784 0.876 0.494198
185 3 0.0297887 0.903943 0.535284
186 3 0.0491053 0.84753 0.460535
187 2 0.847102 0.90072 0.531432
188 3 0.768942 0.896009 0.521041
189 3 0.882216 0.924692 0.570407
190 1 0.867057 0.836192 0.431915
191 2 0.931415 0.814153 0.380303
192 4 0.899564 0.832402 0.327617
193 4 0.0166245 0.779136 0.392426
194 2 0.762016 0.823165 0.422035
195 4 0.733955 0.780791 0.372951
196 4 0.705312 0.854559 0.463692
197 1 0.656566 0.87929 0.236409
198 2 0.755879 0.874 0.244198
199 3 0.779789 0.846057 0.285284
200 3 0.799105 0.90247 0.210535
201 2 0.597102 0.84928 0.281432
202 3 0.518942 0.853991 0.27104
203 3 0.632216 0.825308 0.320407
204 1 0.617057 0.913809 0.181916
205 2 0.681415 0.935846 0.130305
206 4 0.649568 0.9176 0.0776168
207 4 0.766625 0.970864 0.142427
208 2 0.512017 0.926834 0.172036
209 4 0.483957 0.96921 0.12295
210 4 0.455313 0.895441 0.213692
211 1 0.593434 0.62929 0.0135915
212 2 0.494121 0.623999 0.00580206
213 3 0.470211 0.596057 0.964716
214 3 0.450895 0.65247 0.0394655
215 2 0.652899 0.59928 0.968568
216 3 0.731058 0.603991 0.97896
217 3 0.617784 0.575307 0.929593
218 1 0.632943 0.663809 0.0680848
219 2 0.568585 0.685847 0.119697
220 4 0.600436 0.667599 0.172382
221 4 0.483376 0.720864 0.107574
222 2 0.737984 0.676835 0.0779653
223 4 0.766045 0.719209 0.127048
224 4 0.794688 0.645441 0.036308
225 1 0.343434 0.12071 0.763591
226 2 0.24412 0.126 0.755802
227 3 0.220211 0.153943 0.714716
228 3 0.200895 0.0975298 0.789465
229 2 0.402899 0.150721 0.718568
230 3 0.481058 0.146009 0.728959
231 3 0.367784 0.174692 0.679593
232 1 0.382944 0.0861909 0.818086
233 2 0.318585 0.0641533 0.869697
234 4 0.350436 0.0824 0.922383
235 4 0.233376 0.0291358 0.857574
236 2 0.487984 0.0731652 0.827965
237 4 0.516045 0.0307913 0.877048
238 4 0.544688 0.104559 0.786308
239 1 0.406575 0.370725 0.986456
240 2 0.505587 0.376007 0.994152
241 3 0.529864 0.403963 0.0353142
242 3 0.549199 0.347476 0.9605
243 2 0.34726 0.400614 0.0312865
244 3 0.268854 0.396031 0.0210651
245 3 0.382199 0.424722 0.0704584
246 1 0.367199 0.336262 0.932017
247 2 0.431634 0.314066 0.880113
248 4 0.399771 0.332291 0.827884
249 4 0.516152 0.279359 0.892364
250 2 0.261737 0.323133 0.921999
251 4 0.233985 0.28087 0.87303
252 4 0.20549 0.35449 0.963597
253 1 0.156566 0.37929 0.736408
254 2 0.255875 0.374001 0.744197
255 3 0.279802 0.346055 0.785291
256 3 0.299105 0.402471 0.710534
257 2 0.0971029 0.349282 0.78143
258 3 0.0189418 0.353991 0.77104
259 3 0.132231 0.3253 0.820416
260 1 0.117058 0.413807 0.681917
261 2 0.181414 0.435846 0.630304
262 4 0.149564 0.417598 0.577617
263 4 0.266626 0.470864 0.642426
264 2 0.012016 0.426834 0.672035
265 4 0.983955 0.469209 0.622951
266 4 0.955312 0.395441 0.713692
267 1 0.0934336 0.12929 0.513591
268 2 0.994121 0.124 0.505802
269 3 0.970211 0.0960572 0.464716
270 3 0.950895 0.15247 0.539465
271 2 0.152899 0.09928 0.468568
272 3 0.231058 0.103991 0.478959
273 3 0.117784 0.0753077 0.429593
274 1 0.132943 0.163809 0.568085
275 2 0.0685855 0.185847 0.619697
276 4 0.100436 0.167599 0.672383
277 4 0.983375 0.220864 0.607574
278 2 0.237984 0.176835 0.577965
279 4 0.266045 0.219209 0.627049
280 4 0.294688 0.145441 0.536308
281 1 0.843434 0.12071 0.763592
282 2 0.744121 0.126 0.755802
283 3 0.720211 0.153943 0.714716
284 3 0.700895 0.0975297 0.789465
285 2 0.902899 0.15072 0.718568
286 3 0.981058 0.146009 0.728959
287 3 0.867784 0.174692 0.679593
288 1 0.882943 0.0861914 0.818085
289 2 0.818585 0.0641535 0.869697
290 4 0.850436 0.0824015 0.922383
291 4 0.733375 0.0291358 0.857574
292 2 0.987984 0.0731654 0.827965
293 4 0.016045 0.0307913 0.877049
294 4 0.0446878 0.104559 0.786308
295 1 0.906566 0.37071 0.986409
296 2 0.00587805 0.376 0.994198
297 3 0.0297887 0.403943 0.0352842
298 3 0.0491068 0.34753 0.960535
299 2 0.847102 0.40072 0.0314316
300 3 0.768942 0.396009 0.0210407
301 3 0.882216 0.424692 0.0704067
302 1 0.867057 0.336192 0.931916
303 2 0.931415 0.314153 0.880303
304 4 0.899564 0.332402 0.827617
305 4 0.0166249 0.279136 0.892426
306 2 0.762017 0.323165 0.922034
307 4 0.733955 0.280791 0.872951
308 4 0.705315 0.354559 0.963692
309 1 0.656566 0.37929 0.736408
310 2 0.755877 0.374 0.744198
311 3 0.779789 0.346057 0.785284
312 3 0.799105 0.40247 0.710535
313 2 0.597102 0.34928 0.781431
314 3 0.518943 0.353991 0.771041
315 3 0.632216 0.325308 0.820406
316 1 0.617058 0.413808 0.681917
317 2 0.681414 0.435846 0.630304
318 4 0.649564 0.417598 0.577617
319 4 0.766625 0.470864 0.642426
320 2 0.512016 0.426835 0.672034
321 4 0.483955 0.469209 0.622951
322 4 0.455311 0.395442 0.713691
323 1 0.593434 0.12929 0.513592
324 2 0.494122 0.124 0.505802
325 3 0.470211 0.0960572 0.464716
326 3 0.450895 0.15247 0.539465
327 2 0.652898 0.0992801 0.468568
328 3 0.731058 0.103991 0.478959
329 3 0.617784 0.0753077 0.429593
330 1 0.632943 0.163808 0.568084
331 2 0.568585 0.185847 0.619697
332 4 0.600436 0.167598 0.672383
333 4 0.483375 0.220864 0.607574
334 2 0.737984 0.176835 0.577965
335 4 0.766045 0.219209 0.627049
336 4 0.794688 0.145441 0.536308
337 1 0.343434 0.62071 0.763591
338 2 0.24412 0.626 0.755802
339 3 0.220211 0.653943 0.714716
340 3 0.200895 0.59753 0.789465
341 2 0.402899 0.65072 0.718568
342 3 0.481058 0.646009 0.728959
343 3 0.367784 0.674692 0.679593
344 1 0.382944 0.586191 0.818086
345 2 0.318585 0.564153 0.869697
346 4 0.350436 0.5824 0.922383
347 4 0.233376 0.529136 0.857574
348 2 0.487984 0.573165 0.827965
349 4 0.516045 0.530791 0.877048
350 4 0.544688 0.604559 0.786308
351 1 0.406575 0.870725 0.986456
352 2 0.505587 0.876007 0.994152
353 3 0.529864 0.903963 0.0353142
354 3 0.549199 0.847476 0.9605
355 2 0.34726 0.900614 0.0312865
356 3 0.268854 0.896031 0.0210651
357 3 0.382199 0.924722 0.0704584
358 1 0.367199 0.836262 0.932017
359 2 0.431634 0.814066 0.880113
360 4 0.399771 0.832291 0.827884
361 4 0.516152 0.779359 0.892364
362 2 0.261737 0.823133 0.921999
363 4 0.233985 0.78087 0.87303
364 4 0.20549 0.85449 0.963597
365 1 0.156566 0.87929 0.736408
366 2 0.255875 0.874001 0.744197
367 3 0.279802 0.846055 0.785291
368 3 0.299105 0.902471 0.710534
369 2 0.0971029 0.849282 0.78143
370 3 0.0189418 0.853991 0.77104
371 3 0.132231 0.8253 0.820416
372 1 0.117059 0.913807 0.681917
373 2 0.181414 0.935846 0.630304
374 4 0.149564 0.917598 0.577617
375 4 0.266626 0.970864 0.642426
376 2 0.012016 0.926834 0.672035
377 4 0.983955 0.969209 0.622951
378 4 0.955311 0.895441 0.713692
379 1 0.0934336 0.62929 0.513591
380 2 0.994121 0.624 0.505802
381 3 0.970211 0.596057 0.464716
382 3 0.950895 0.65247 0.539465
383 2 0.152899 0.59928 0.468568
384 3 0.231058 0.603991 0.478959
385 3 0.117784 0.575308 0.429593
386 1 0.132943 0.663809 0.568085
387 2 0.0685855 0.685847 0.619697
388 4 0.100436 0.667599 0.672383
389 4 0.983375 0.720864 0.607574
390 2 0.237984 0.676835 0.577965
391 4 0.266045 0.719209 0.627049
392 4 0.294688 0.645441 0.536308
393 1 0.843434 0.62071 0.763591
394 2 0.744121 0.626 0.755802
395 3 0.720211 0.653943 0.714716
396 3 0.700895 0.59753 0.789465
397 2 0.902899 0.65072 0.718568
398 3 0.981058 0.646009 0.728959
399 3 0.867784 0.674692 0.679593
400 1 0.882944 0.586191 0.818085
401 2 0.818585 0.564153 0.869697
402 4 0.850436 0.582402 0.922383
403 4 0.733375 0.529136 0.857574
404 2 0.987984 0.573165 0.827965
405 4 0.0160449 0.530791 0.877048
406 4 0.0446878 0.604559 0.786308
407 1 0.906566 0.87071 0.986409
408 2 0.00587813 0.876 0.994198
409 3 0.0297887 0.903943 0.0352842
410 3 0.0491068 0.84753 0.960535
411 2 0.847102 0.90072 0.0314317
412 3 0.768942 0.896009 0.0210407
413 3 0.882216 0.924692 0.0704067
414 1 0.867057 0.836192 0.931916
415 2 0.931415 0.814153 0.880303
416 4 0.899564 0.832402 0.827617
417 4 0.0166249 0.779136 0.892426
418 2 0.762017 0.823165 0.922034
419 4 0.733955 0.780791 0.872951
420 4 0.705315 0.854559 0.963692
421 1 0.656566 0.87929 0.736408
422 2 0.755877 0.874 0.744198
423 3 0.779789 0.846057 0.785284
424 3 0.799105 0.90247 0.710535
425 2 0.597102 0.84928 0.781431
426 3 0.518943 0.853991 0.771041
427 3 0.632216 0.825308 0.820406
428 1 0.617058 0.913808 0.681916
429 2 0.681414 0.935846 0.630304
430 4 0.649564 0.917598 0.577617
431 4 0.766625 0.970864 0.642426
432 2 0.512016 0.926835 0.672034
433 4 0.483955 0.969209 0.622951
434 4 0.455311 0.895442 0.713691
435 1 0.593434 0.62929 0.513591
436 2 0.494122 0.624 0.505802
437 3 0.470211 0.596057 0.464716
438 3 0.450895 0.65247 0.539465
439 2 0.652898 0.59928 0.468568
440 3 0.731058 0.603991 0.478959
441 3 0.617784 0.575308 0.429593
442 1 0.632943 0.663808 0.568085
443 2 0.568585 0.685847 0.619697
444 4 0.600436 0.667598 0.672383
445 4 0.483375 0.720864 0.607574
446 2 0.737984 0.676835 0.577965
447 4 0.766045 0.719209 0.627049
448 4 0.794688 0.645441 0.536308
ITEM: TIMESTEP
1000
ITEM: NUMBER OF ATOMS
448
ITEM: BOX BOUNDS xy xz yz pp pp pp
-1.9469510737858011e+00 1.3935857268481303e+01 -1.8588046982950965e-01
5.3765761057056416e-01 1.3015564433712935e+01 -1.7044133354750255e+00
7.6467505328176877e-01 2.1915235305018228e+01 2.7842204428349498e-01
ITEM: ATOMS id type xs ys zs
1 1 0.339745 0.116748 0.249974
2 2 0.241023 0.109707 0.239184
3 3 0.19732 0.158499 0.193447
4 3 0.201188 0.0613172 0.284161
5 2 0.394475 0.157886 0.206479
6 3 0.473176 0.1553 0.228942
7 3 0.365226 0.206598 0.149617
8 1 0.380024 0.074764 0.312082
9 2 0.323714 0.0663019 0.36629
10 4 0.362243 0.0727175 0.424773
11 4 0.232739 0.0331171 0.35283
12 2 0.485028 0.0586591 0.325335
13 4 0.520229 0.00350681 0.37317
14 4 0.541717 0.0976738 0.28326
15 1 0.400457 0.387274 0.50107
16 2 0.498825 0.405481 0.506423
17 3 0.53936 0.417643 0.563801
18 3 0.542005 0.351201 0.466042
19 2 0.346678 0.414074 0.547143
20 3 0.26448 0.408741 0.529751
21 3 0.375816 0.459918 0.599236
22 1 0.352509 0.340649 0.440814
23 2 0.408643 0.309904 0.3926
24 4 0.371808 0.298087 0.33307
25 4 0.503833 0.301472 0.40353
26 2 0.245299 0.323356 0.432317
27 4 0.213675 0.256393 0.390415
28 4 0.191444 0.366656 0.473141
29 1 0.13345 0.377009 0.252444
30 2 0.224434 0.372197 0.267512
31 3 0.270027 0.332376 0.319326
32 3 0.277776 0.408372 0.228401
33 2 0.0655037 0.344476 0.293438
34 3 0.979864 0.341242 0.264518
35 3 0.0945454 0.324142 0.337318
36 1 0.0961936 0.42161 0.18804
37 2 0.166992 0.441579 0.140678
38 4 0.139021 0.445239 0.079912
39 4 0.256796 0.459119 0.161064
40 2 0.999205 0.435748 0.16771
41 4 0.965496 0.497245 0.117324
42 4 0.934609 0.388588 0.204254
43 1 0.101565 0.136677 0.00127197
44 2 0.0101259 0.144377 0.985244
45 3 0.958044 0.101341 0.936175
46 3 0.959382 0.191087 0.019815
47 2 0.159524 0.0891346 0.961565
48 3 0.245592 0.0974182 0.98447
49 3 0.126182 0.0549621 0.90869
50 1 0.139854 0.184443 0.0646415
51 2 0.0698011 0.196367 0.111032
52 4 0.0942511 0.191534 0.173418
53 4 0.976997 0.211463 0.0932032
54 2 0.239379 0.19784 0.0796019
55 4 0.272743 0.24969 0.133999
56 4 0.298576 0.146584 0.0446355
57 1 0.839106 0.120062 0.25691
58 2 0.742493 0.138441 0.246048
59 3 0.713388 0.165805 0.189671
60 3 0.704866 0.120881 0.28711
61 2 0.897166 0.139641 0.212876
62 3 0.98214 0.12968 0.231449
63 3 0.869198 0.174114 0.156716
64 1 0.880379 0.0765525 0.320608
65 2 0.809037 0.0547776 0.370766
66 4 0.847793 0.0393526 0.426335
67 4 0.717865 0.0560495 0.355098
68 2 0.975487 0.0628289 0.3337
69 4 0.0235575 0.0240325 0.392255
70 4 0.0373744 0.0788092 0.291032
71 1 0.897183 0.357757 0.503494
72 2 0.991347 0.363461 0.516304
73 3 0.0279394 0.407961 0.568549
74 3 0.0417623 0.334275 0.475085
75 2 0.833417 0.390193 0.542343
76 3 0.746447 0.379947 0.519575
77 3 0.860301 0.421923 0.585732
78 1 0.857374 0.319882 0.438876
79 2 0.921026 0.310643 0.390511
80 4 0.889637 0.311859 0.330044
81 4 0.0149086 0.299509 0.405933
82 2 0.754184 0.31534 0.420661
83 4 0.722333 0.263948 0.367876
84 4 0.689481 0.350909 0.456914
85 1 0.642246 0.384105 0.250352
86 2 0.737728 0.398779 0.264811
87 3 0.786929 0.352236 0.308918
88 3 0.774512 0.44758 0.225293
89 2 0.5858 0.331084 0.28857
90 3 0.498432 0.326303 0.270331
91 3 0.618977 0.292836 0.342302
92 1 0.598029 0.427805 0.188836
93 2 0.665426 0.452587 0.136347
94 4 0.629021 0.448636 0.0775475
95 4 0.756707 0.466501 0.151482
96 2 0.499515 0.432325 0.178284
97 4 0.462993 0.483787 0.123996
98 4 0.439564 0.385495 0.215464
99 1 0.598311 0.135213 0.992757
100 2 0.503703 0.142662 0.982028
101 3 0.455633 0.109057 0.932987
102 3 0.463475 0.180673 0.0274273
103 2 0.653673 0.0897287 0.954128
104 3 0.743036 0.0878555 0.972048
105 3 0.612528 0.0562169 0.900179
106 1 0.643816 0.17882 0.0564286
107 2 0.585515 0.201135 0.107863
108 4 0.614357 0.207716 0.169134
109 4 0.49281 0.223254 0.0936858
110 2 0.74559 0.181662 0.0685561
111 4 0.784108 0.229545 0.122551
112 4 0.80056 0.132858 0.0303642
113 1 0.375919 0.613807 0.246975
114 2 0.281914 0.611131 0.232471
115 3 0.241399 0.641351 0.181626
116 3 0.225762 0.568992 0.271776
117 2 0.436235 0.653813 0.204312
118 3 0.523728 0.647333 0.227859
119 3 0.397755 0.675794 0.159127
120 1 0.411309 0.567975 0.311231
121 2 0.343935 0.566468 0.359764
122 4 0.373318 0.561725 0.420437
123 4 0.249424 0.555819 0.342583
124 2 0.512249 0.557973 0.328243
125 4 0.552584 0.494113 0.375591
126 4 0.572621 0.598294 0.287521
127 1 0.400146 0.890659 0.498383
128 2 0.499118 0.887815 0.504198
129 3 0.539342 0.917726 0.54634
130 3 0.536574 0.836095 0.459479
131 2 0.346471 0.917205 0.544077
132 3 0.265163 0.914766 0.527132
133 3 0.372522 0.965767 0.599442
134 1 0.356843 0.849519 0.43615
135 2 0.410143 0.807927 0.388559
136 4 0.372873 0.784223 0.329749
137 4 0.502983 0.78543 0.397446
138 2 0.24993 0.829373 0.428221
139 4 0.215367 0.760074 0.385675
140 4 0.195465 0.874682 0.467311
141 1 0.139016 0.867811 0.250219
142 2 0.232772 0.873135 0.266765
143 3 0.27339 0.828294 0.316936
144 3 0.275359 0.923827 0.229438
145 2 0.0777191 0.822774 0.289981
146 3 0.991629 0.819517 0.264014
147 3 0.106672 0.790625 0.336261
148 1 0.102343 0.918505 0.188308
149 2 0.166429 0.94376 0.137506
150 4 0.134754 0.956564 0.0777458
151 4 0.257061 0.953987 0.155891
152 2 0.00262874 0.933582 0.171972
153 4 0.974027 0.980888 0.11702
154 4 0.942502 0.889869 0.211002
155 1 0.118408 0.62063 0.998861
156 2 0.0197922 0.616533 0.991314
157 3 0.979619 0.6032 0.94327
158 3 0.977232 0.653266 0.0381259
159 2 0.173581 0.597127 0.951063
160 3 0.253301 0.588992 0.969743
161 3 0.133918 0.554454 0.898528
162 1 0.161972 0.657335 0.0596065
163 2 0.104351 0.678639 0.111966
164 4 0.141254 0.692502 0.170503
165 4 0.0129584 0.707227 0.0987559
166 2 0.268462 0.675097 0.0692813
167 4 0.303222 0.73024 0.117758
168 4 0.324436 0.635677 0.027889
169 1 0.868921 0.615613 0.25126
170 2 0.772534 0.616599 0.239066
171 3 0.753103 0.666346 0.195363
172 3 0.714703 0.588924 0.280325
173 2 0.923354 0.65151 0.207989
174 3 0.0106341 0.642243 0.223905
175 3 0.89049 0.68916 0.152381
176 1 0.911451 0.577158 0.315766
177 2 0.843812 0.564037 0.36411
178 4 0.875474 0.567409 0.424924
179 4 0.750501 0.560294 0.348596
180 2 0.012913 0.564037 0.327635
181 4 0.0521989 0.507018 0.378566
182 4 0.0681544 0.614695 0.287235
183 1 0.900742 0.858216 0.496316
184 2 0.998138 0.869947 0.506348
185 3 0.0290126 0.909721 0.557867
186 3 0.0468778 0.843982 0.463083
187 2 0.843092 0.884222 0.539736
188 3 0.7582 0.880737 0.517964
189 3 0.873836 0.911027 0.597117
190 1 0.856431 0.81793 0.432949
191 2 0.920398 0.804674 0.380823
192 4 0.886589 0.793748 0.32419
193 4 0.0152451 0.804377 0.395646
194 2 0.758044 0.807394 0.418441
195 4 0.727435 0.772675 0.358531
196 4 0.696183 0.84094 0.456974
197 1 0.650452 0.89237 0.245742
198 2 0.749953 0.902563 0.256797
199 3 0.770553 0.858813 0.296847
200 3 0.797865 0.934203 0.215992
201 2 0.592389 0.853995 0.288425
202 3 0.499647 0.849922 0.272617
203 3 0.632444 0.825105 0.34289
204 1 0.605446 0.927741 0.184432
205 2 0.665149 0.950277 0.130084
206 4 0.63569 0.954187 0.0702598
207 4 0.757006 0.966523 0.14603
208 2 0.502234 0.932909 0.174078
209 4 0.462885 0.98515 0.122136
210 4 0.443253 0.885205 0.21208
211 1 0.619875 0.627824 0.999222
212 2 0.52176 0.617746 0.991371
213 3 0.484947 0.584819 0.942452
214 3 0.481652 0.645086 0.0346428
215 2 0.673008 0.595112 0.953795
216 3 0.761361 0.60499 0.972156
217 3 0.63134 0.568506 0.89853
218 1 0.662668 0.664828 0.0617752
219 2 0.604359 0.688029 0.115573
220 4 0.644205 0.705522 0.172346
221 4 0.511138 0.690986 0.104008
222 2 0.763999 0.684091 0.0699846
223 4 0.7964 0.732076 0.126312
224 4 0.822795 0.657089 0.0276811
225 1 0.344083 0.120665 0.753663
226 2 0.24519 0.122491 0.741944
227 3 0.216235 0.154834 0.689216
228 3 0.205695 0.081612 0.784869
229 2 0.399264 0.164143 0.710865
230 3 0.486155 0.144841 0.728649
231 3 0.377787 0.20173 0.653512
232 1 0.383127 0.0714112 0.81443
233 2 0.318606 0.0485633 0.866449
234 4 0.355342 0.0516554 0.925727
235 4 0.230449 0.0199199 0.853227
236 2 0.483547 0.0599576 0.82558
237 4 0.51608 0.00753074 0.878915
238 4 0.545984 0.096309 0.786569
239 1 0.395116 0.361706 0.00207381
240 2 0.494401 0.363512 0.0122042
241 3 0.521034 0.389665 0.0590501
242 3 0.542586 0.338382 0.96837
243 2 0.339049 0.393468 0.0451074
244 3 0.253361 0.391797 0.0244667
245 3 0.372977 0.43453 0.101591
246 1 0.350708 0.327 0.938293
247 2 0.41281 0.310138 0.88595
248 4 0.384803 0.307536 0.825446
249 4 0.506698 0.298955 0.90083
250 2 0.250385 0.307969 0.929667
251 4 0.217094 0.260708 0.875545
252 4 0.18997 0.349017 0.967934
253 1 0.146981 0.375886 0.749649
254 2 0.242657 0.377966 0.759324
255 3 0.279224 0.342777 0.810476
256 3 0.287484 0.415432 0.71365
257 2 0.0939452 0.33882 0.795919
258 3 0.0166405 0.326106 0.775722
259 3 0.122411 0.301755 0.852744
260 1 0.107901 0.414702 0.685193
261 2 0.168948 0.444528 0.636674
262 4 0.132025 0.447755 0.576556
263 4 0.262139 0.461686 0.647343
264 2 0.00279344 0.428637 0.676481
265 4 0.963931 0.487036 0.629973
266 4 0.951583 0.390354 0.721304
267 1 0.0973547 0.136547 0.506373
268 2 0.999947 0.129887 0.495968
269 3 0.974188 0.0669841 0.449511
270 3 0.949691 0.165774 0.533776
271 2 0.151849 0.105348 0.461572
272 3 0.241223 0.123131 0.475063
273 3 0.114565 0.0874972 0.404531
274 1 0.144591 0.18531 0.565224
275 2 0.0789475 0.198382 0.615418
276 4 0.109302 0.195114 0.676379
277 4 0.986121 0.210395 0.601044
278 2 0.246891 0.195278 0.577149
279 4 0.279589 0.24369 0.632917
280 4 0.302112 0.156511 0.535447
281 1 0.849747 0.0999444 0.746257
282 2 0.751478 0.0819504 0.732532
283 3 0.704889 0.131631 0.687217
284 3 0.713775 0.0412064 0.77373
285 2 0.908072 0.146161 0.707153
286 3 0.993571 0.15114 0.729044
287 3 0.874329 0.179235 0.652425
288 1 0.893093 0.068846 0.811491
289 2 0.829642 0.0512882 0.861744
290 4 0.864456 0.0485965 0.923426
291 4 0.738243 0.0500776 0.848731
292 2 0.995489 0.0639298 0.829476
293 4 0.0274294 0.011802 0.882377
294 4 0.0520461 0.114777 0.789948
295 1 0.896813 0.370856 0.0015411
296 2 0.994253 0.374104 0.0103272
297 3 0.0338038 0.397977 0.0618751
298 3 0.035188 0.354234 0.965123
299 2 0.836881 0.401767 0.0456096
300 3 0.755568 0.401742 0.0335397
301 3 0.870255 0.45623 0.0967891
302 1 0.850768 0.328821 0.941849
303 2 0.907032 0.306714 0.89138
304 4 0.864637 0.294207 0.834437
305 4 0.00188351 0.303216 0.898521
306 2 0.741085 0.317014 0.933119
307 4 0.703647 0.263024 0.886534
308 4 0.688292 0.365182 0.972168
309 1 0.636993 0.369289 0.751242
310 2 0.731379 0.370871 0.767876
311 3 0.759762 0.33799 0.820133
312 3 0.783282 0.41245 0.727051
313 2 0.573351 0.327743 0.78827
314 3 0.486151 0.326008 0.759686
315 3 0.598708 0.283387 0.82901
316 1 0.605606 0.413833 0.686204
317 2 0.674178 0.427965 0.639495
318 4 0.645067 0.432081 0.57792
319 4 0.769161 0.43516 0.657035
320 2 0.505509 0.437449 0.670362
321 4 0.47505 0.502541 0.622302
322 4 0.441776 0.377971 0.701088
323 1 0.596265 0.147725 0.502763
324 2 0.502201 0.157978 0.48402
325 3 0.467782 0.115888 0.435823
326 3 0.465543 0.206722 0.529939
327 2 0.658565 0.107844 0.461815
328 3 0.740555 0.0890046 0.483901
329 3 0.630808 0.0859438 0.41632
330 1 0.638821 0.179426 0.565804
331 2 0.577236 0.195471 0.617254
332 4 0.605358 0.182781 0.677607
333 4 0.487587 0.227141 0.599621
334 2 0.742434 0.185521 0.580797
335 4 0.77897 0.232709 0.633894
336 4 0.797826 0.133731 0.544155
337 1 0.354135 0.624986 0.751425
338 2 0.256339 0.611057 0.741585
339 3 0.207093 0.653758 0.693591
340 3 0.22298 0.559536 0.777601
341 2 0.407599 0.664399 0.70819
342 3 0.496428 0.654139 0.725786
343 3 0.381499 0.684277 0.649056
344 1 0.402271 0.578766 0.81189
345 2 0.345354 0.553324 0.865909
346 4 0.375769 0.547296 0.925234
347 4 0.253333 0.538292 0.852274
348 2 0.504306 0.576063 0.822687
349 4 0.536322 0.519625 0.876596
350 4 0.560584 0.629009 0.786499
351 1 0.396529 0.863171 0.00338098
352 2 0.494204 0.852768 0.0174235
353 3 0.528605 0.911187 0.05752
354 3 0.528473 0.81709 0.975976
355 2 0.338775 0.902522 0.0450934
356 3 0.251709 0.915073 0.0226235
357 3 0.370364 0.929551 0.0990885
358 1 0.356786 0.831955 0.937949
359 2 0.418906 0.809931 0.885533
360 4 0.388501 0.801364 0.825878
361 4 0.509989 0.796828 0.901036
362 2 0.256605 0.819023 0.926078
363 4 0.221493 0.772947 0.8718
364 4 0.197914 0.857247 0.966259
365 1 0.145883 0.895639 0.750733
366 2 0.240434 0.893791 0.761575
367 3 0.288192 0.853108 0.80665
368 3 0.280905 0.924864 0.715614
369 2 0.088665 0.863251 0.794076
370 3 0.00312921 0.853322 0.774449
371 3 0.133211 0.830798 0.846149
372 1 0.0982913 0.927172 0.685014
373 2 0.159553 0.954999 0.631989
374 4 0.137536 0.945944 0.571723
375 4 0.249478 0.98101 0.650746
376 2 0.000278283 0.924912 0.67304
377 4 0.964475 0.971671 0.615784
378 4 0.941287 0.896536 0.715485
379 1 0.115551 0.636147 0.494301
380 2 0.019858 0.64327 0.480251
381 3 0.979369 0.59924 0.429709
382 3 0.974346 0.681872 0.521529
383 2 0.169399 0.59164 0.455663
384 3 0.250502 0.589924 0.483959
385 3 0.147535 0.556486 0.400358
386 1 0.151907 0.671125 0.561477
387 2 0.0883674 0.691146 0.61082
388 4 0.111488 0.70447 0.672203
389 4 0.996978 0.706502 0.593588
390 2 0.252665 0.677456 0.574871
391 4 0.280264 0.720595 0.630896
392 4 0.315971 0.639698 0.538167
393 1 0.85633 0.613212 0.746599
394 2 0.759929 0.595976 0.734207
395 3 0.705301 0.653538 0.693151
396 3 0.734923 0.543172 0.767101
397 2 0.911004 0.66816 0.707385
398 3 0.996029 0.662395 0.732747
399 3 0.881895 0.700117 0.650914
400 1 0.899421 0.574192 0.809668
401 2 0.839112 0.553015 0.863334
402 4 0.873272 0.560173 0.923454
403 4 0.75023 0.534264 0.84562
404 2 0.00126814 0.566833 0.823533
405 4 0.0330777 0.519231 0.87985
406 4 0.0620036 0.606683 0.785064
407 1 0.897659 0.863633 0.998243
408 2 0.9944 0.867693 0.00746771
409 3 0.0347409 0.908241 0.050931
410 3 0.0293101 0.812295 0.96398
411 2 0.83944 0.904086 0.0381041
412 3 0.758066 0.913032 0.0221321
413 3 0.877931 0.936813 0.0923422
414 1 0.850551 0.82085 0.936829
415 2 0.908719 0.80124 0.885645
416 4 0.873151 0.799571 0.825688
417 4 0.0041035 0.796461 0.894621
418 2 0.744962 0.81259 0.929794
419 4 0.711258 0.750876 0.88439
420 4 0.690224 0.872955 0.964298
421 1 0.638557 0.870021 0.739271
422 2 0.73191 0.85237 0.75716
423 3 0.766876 0.814231 0.812042
424 3 0.775355 0.876823 0.718306
425 2 0.577559 0.840797 0.781637
426 3 0.489973 0.876393 0.767473
427 3 0.607264 0.795884 0.822586
428 1 0.605692 0.923822 0.676689
429 2 0.680651 0.942329 0.631229
430 4 0.653704 0.946562 0.571364
431 4 0.771762 0.937678 0.650906
432 2 0.50842 0.955081 0.666848
433 4 0.474784 0.997726 0.610506
434 4 0.444352 0.924428 0.707553
435 1 0.612071 0.633671 0.494753
436 2 0.516788 0.636879 0.479442
437 3 0.482367 0.580935 0.434611
438 3 0.473549 0.695693 0.516524
439 2 0.676055 0.590197 0.457483
440 3 0.761196 0.596079 0.482163
441 3 0.638878 0.556396 0.403265
442 1 0.650357 0.67871 0.55739
443 2 0.583855 0.700481 0.605481
444 4 0.607062 0.69351 0.667679
445 4 0.492633 0.719974 0.586917
446 2 0.748813 0.686356 0.578029
447 4 0.780373 0.735743 0.63239
448 4 0.81142 0.633105 0.546124
ITEM: TIMESTEP
2000
ITEM: NUMBER OF ATOMS
448
ITEM: BOX BOUNDS xy xz yz pp pp pp