LAMMPS data file via write_data, version 15 Apr 2020, timestep = 80000

448 atoms
4 atom types

-1.6050990212513305e-01 1.4039709902124857e+01 xlo xhi
7.1374058487992098e-01 1.2561059415120139e+01 ylo yhi
7.5176802309385771e-01 2.1928142335206431e+01 zlo zhi
1.7066347977878928e+00 -1.8049661859236754e+00 -1.7081946028433614e-01 xy xz yz

Masses

1 12.0107
2 14.0067
3 1.00794
4 15.9994

Atoms # full

1 1 1 4.7375423015632739e-01 5.4392097904542247e+00 2.4297867848864252e+00 5.8563454608664784e+00 0 0 0
2 1 2 -5.8886555080403868e-01 4.0921037708327193e+00 2.7449242309241595e+00 5.7202421398417460e+00 0 0 0
3 1 3 4.5807812586072061e-01 3.8871625841865507e+00 3.1449848768810220e+00 4.6714207110593433e+00 0 0 0
4 1 3 4.2937728440408163e-01 3.3317697559100514e+00 2.3735332475296755e+00 6.5307759351142369e+00 0 0 0
5 1 2 -5.0114254115077006e-01 6.3724359849966472e+00 2.6818039314957067e+00 4.8816060331503097e+00 0 0 0
6 1 3 4.1365121154649187e-01 7.5349686596708354e+00 2.5306392317997970e+00 5.2198052940946695e+00 0 0 0
7 1 3 4.3487311381611632e-01 5.9357381210781064e+00 3.0788931758247839e+00 3.7323850812352881e+00 0 0 0
8 1 1 -1.1028437552364553e-01 5.8815602566261536e+00 1.9589267016054936e+00 7.1435949180860367e+00 0 0 0
9 1 2 4.5772097175301391e-01 4.7344189845815734e+00 1.5700070762567906e+00 8.2553147965951510e+00 0 0 0
10 1 4 -4.4667613630847625e-01 5.0917774773364695e+00 1.1749555919443133e+00 9.3915377334913490e+00 0 0 0
11 1 4 -4.5486400384258885e-01 3.4956959905645384e+00 1.6682221220811793e+00 7.9303276987765257e+00 0 0 0
12 1 2 3.6322767435987990e-01 7.1848669550103246e+00 1.6520099056263029e+00 7.4170024821410463e+00 0 0 0
13 1 4 -4.7555308204965374e-01 7.5788924900315706e+00 9.5888584126122023e-01 8.5809457407392387e+00 0 0 0
14 1 4 -4.3554620109430525e-01 8.1294081568381316e+00 1.9117756589144024e+00 6.5168605835166504e+00 0 0 0
15 1 1 4.6925739401505340e-01 4.3647297433796064e+00 5.1534538485104964e+00 1.1699103406725934e+01 0 0 0
16 1 2 -4.8989755310828204e-01 5.6236239229332012e+00 4.7879031253086275e+00 1.2027679991372830e+01 0 0 0
17 1 3 4.1073910679122466e-01 6.2160109979523455e+00 5.2655140614183553e+00 1.3019889758477712e+01 0 0 0
18 1 3 3.9078851404006004e-01 6.1940471783716564e+00 4.0420350678739032e+00 1.1199870914744281e+01 0 0 0
19 1 2 -4.9381886569753919e-01 3.5030580996456777e+00 5.7766063785691335e+00 1.2547500333886857e+01 0 0 0
20 1 3 3.9404486289680324e-01 2.4162784176734267e+00 6.0052865167845795e+00 1.1992722163034982e+01 0 0 0
21 1 3 4.3693629652163546e-01 3.8429290372863525e+00 6.0258979538270045e+00 1.3727641938377044e+01 0 0 0
22 1 1 -1.0174906133677514e-01 3.9217250104510093e+00 4.7778098583585615e+00 1.0334880236805002e+01 0 0 0
23 1 2 4.5461310744384753e-01 4.9498367826504222e+00 4.3821467685589441e+00 9.2876922309507162e+00 0 0 0
24 1 4 -4.6075307125226489e-01 4.6563722049525653e+00 4.4809058295833086e+00 8.0279196406760782e+00 0 0 0
25 1 4 -4.4419813007618969e-01 6.1582780544581297e+00 4.0697239387069422e+00 9.6649078875666952e+00 0 0 0
26 1 2 3.7295502369027600e-01 2.5235542393051524e+00 4.7070384563497161e+00 1.0110304416170006e+01 0 0 0
27 1 4 -4.2982174214835622e-01 2.2481923777847244e+00 3.9428147479425930e+00 9.0301960728477830e+00 0 0 0
28 1 4 -4.2824281898224936e-01 1.6374281293168920e+00 5.3710878698399567e+00 1.0849234374254564e+01 0 0 0
29 1 1 4.8365285341538067e-01 1.3751890609702850e+00 5.2007510043695406e+00 6.2695762139037789e+00 0 0 0
30 1 2 -5.4422538910296359e-01 2.6895052171614946e+00 5.3728411754105840e+00 6.5496295335757866e+00 0 0 0
31 1 3 4.3182324572356590e-01 3.1997342668099318e+00 4.9216064518933074e+00 7.5559115415971609e+00 0 0 0
32 1 3 4.0071718940614620e-01 3.3435297603020859e+00 5.9228004106222034e+00 5.6438960945100369e+00 0 0 0
33 1 2 -5.2780351761771982e-01 4.9443609769262109e-01 4.7354769312255218e+00 7.1655996310756596e+00 0 0 0
34 1 3 3.9069714923337784e-01 1.3605133083479830e+01 4.7346463873935267e+00 6.6261696316747605e+00 -1 0 0
35 1 3 4.3780664031181182e-01 9.5721031956653435e-01 4.4181290755495137e+00 8.2982675169703768e+00 0 0 0
36 1 1 -1.1833742461022173e-01 9.3549997244163696e-01 5.5728609403840066e+00 4.8756768077285155e+00 0 0 0
37 1 2 4.4314746749119815e-01 1.8779976897539923e+00 5.8402683555917836e+00 3.8100021208635968e+00 0 0 0
38 1 4 -4.5170753559890986e-01 1.5781377315684439e+00 5.7490914144904330e+00 2.5350539606849338e+00 0 0 0
39 1 4 -4.6164992934957744e-01 3.1144449853055600e+00 6.1818626302859538e+00 4.1324735404489630e+00 0 0 0
40 1 2 3.5320879519031179e-01 1.3727181850809819e+01 5.6468657537245814e+00 4.5291710969068966e+00 -1 0 0
41 1 4 -4.6379082715202702e-01 1.3443166675416284e+01 6.3948428969801148e+00 3.4203203275010567e+00 0 0 0
42 1 4 -4.6797013130985521e-01 1.2816695033886958e+01 5.1864007600138704e+00 5.3417802966883752e+00 0 0 0
43 1 1 4.7891874140988167e-01 4.8883363790906675e-01 1.8260759972510610e+00 2.1808761410504296e+01 0 0 -1
44 1 2 -5.6271218294705871e-01 -8.6510242148257177e-01 1.7269934869155483e+00 2.1625235457525008e+01 1 0 -1
45 1 3 4.6387330102641167e-01 -1.2438371220845765e+00 1.4271870370196202e+00 2.0666650026436280e+01 1 0 0
46 1 3 4.2125585099494195e-01 1.9221647036969500e-01 2.2974584198259818e+00 1.4389193009073824e+00 1 0 0
47 1 2 -5.0108103357686562e-01 1.3665742382355563e+00 1.3949647706356652e+00 2.0865066899411048e+01 0 0 0
48 1 3 4.0117090111719927e-01 2.5123804326133143e+00 1.4846769383469736e+00 2.1295084682470900e+01 0 0 0
49 1 3 4.3982761419325117e-01 9.2384199800835076e-01 1.0389764916249875e+00 1.9697679206413412e+01 0 0 0
50 1 1 -1.2389155410387817e-01 2.7881076300390997e+00 2.6093647249965182e+00 1.9254210982338709e+00 0 0 0
51 1 2 4.5788549253417715e-01 1.7685168205295070e+00 3.0199859407912393e+00 2.9512579086862072e+00 0 0 0
52 1 4 -4.5504168947236795e-01 2.1861562051589081e+00 3.3243164747722873e+00 4.0771252199082415e+00 0 0 0
53 1 4 -5.2350887783449873e-01 4.4077640535071838e-01 3.0482041814403837e+00 2.6929665909765372e+00 1 0 0
54 1 2 3.9110733972976008e-01 4.1529031891450607e+00 2.8043248442789284e+00 2.1359610016866744e+00 0 0 0
55 1 4 -4.9195440334830870e-01 4.5810296442185585e+00 3.5448760987485461e+00 3.2385199307862012e+00 0 0 0
56 1 4 -4.5230837458178824e-01 5.0591217106200999e+00 2.3352236327240430e+00 1.3162817395428683e+00 0 0 0
57 1 1 4.8030960660987410e-01 1.2457538480623885e+01 2.0185471061473956e+00 5.7547703540391231e+00 0 0 0
58 1 2 -5.6447381525102924e-01 1.1147060382666151e+01 1.9407740888683098e+00 5.4092798322021594e+00 0 0 0
59 1 3 4.5305781244832471e-01 1.0758224647409152e+01 2.4996706476507926e+00 4.5397330019100757e+00 0 0 0
60 1 3 4.1222616844741200e-01 1.0496337970390472e+01 1.5424207406847235e+00 6.4212005848170852e+00 0 0 0
61 1 2 -5.0698543721586053e-01 1.3354920182795723e+01 2.6049628557129330e+00 4.9062582755885877e+00 0 0 0
62 1 3 3.9170563437060535e-01 3.1293739816544686e-01 2.6721644664487973e+00 5.3806863002910976e+00 1 0 0
63 1 3 4.4313323205454930e-01 1.2992148283266076e+01 2.9437983694878462e+00 3.7615307693426527e+00 0 0 0
64 1 1 -1.1043168893355131e-01 1.2937857756316578e+01 1.5799140866745747e+00 7.0807283869766957e+00 0 0 0
65 1 2 4.4109122251574284e-01 1.1985765223435887e+01 1.2666591348845067e+00 8.1456525967507378e+00 0 0 0
66 1 4 -4.6240716224812850e-01 1.2426317291286434e+01 1.2020559623841098e+00 9.4000554819037312e+00 0 0 0
67 1 4 -4.5887248515120960e-01 1.0699637252673439e+01 1.1641684794967928e+00 7.8869839024818011e+00 0 0 0
68 1 2 3.7063696022693238e-01 1.8025553714667952e-01 1.5539264044623811e+00 7.3790298607714488e+00 1 0 0
69 1 4 -4.5295196352255040e-01 5.5351332853439261e-01 7.6483552808277844e-01 8.3985887227234954e+00 0 0 0
70 1 4 -4.6368737829199319e-01 1.0408606593426390e+00 2.2409201121131561e+00 6.6439740764886830e+00 0 0 0
71 1 1 4.7127757511650914e-01 1.1493858770929180e+01 5.2338021368795298e+00 1.1555759660824721e+01 0 0 0
72 1 2 -5.2074406041929233e-01 1.2827552112311817e+01 5.3773011902105328e+00 1.1828601070395283e+01 -1 0 0
73 1 3 4.3706248280551713e-01 1.3054177520380311e+01 5.8554377197875791e+00 1.2914716254983301e+01 -1 0 0
74 1 3 4.3561469370567402e-01 1.3671991306149572e+01 5.1066447976160454e+00 1.1006543688379709e+01 -1 0 0
75 1 2 -4.7194533702627267e-01 1.0599837441823261e+01 5.3405831998882025e+00 1.2543669254016546e+01 0 0 0
76 1 3 3.9550577075053228e-01 9.4349604786884136e+00 5.0921530560341344e+00 1.2120534321145030e+01 0 0 0
77 1 3 4.3050876363983770e-01 1.0995964150738155e+01 5.6140850278191428e+00 1.3768578134377812e+01 0 0 0
78 1 1 -1.0636361522117554e-01 1.1107234308955343e+01 4.7334406103011153e+00 1.0186606967058998e+01 0 0 0
79 1 2 4.4155626451337748e-01 1.2248045764239173e+01 4.3002235052549693e+00 9.2314490638065863e+00 0 0 0
80 1 4 -4.2993001262045188e-01 1.1875343780452267e+01 3.8872918140830404e+00 8.1032563972335581e+00 0 0 0
81 1 4 -4.5567660860805259e-01 1.3493776727096652e+01 4.4263670249259546e+00 9.6041093192966329e+00 -1 0 0
82 1 2 3.6449531445214983e-01 9.8067136916116215e+00 4.6138438334359622e+00 9.8456918279312049e+00 0 0 0
83 1 4 -4.6861750833952492e-01 9.3981565576431567e+00 4.0205290550751887e+00 8.6228662720041864e+00 0 0 0
84 1 4 -4.1021069573096747e-01 8.8389218878499385e+00 4.8439749244588581e+00 1.0718496658138630e+01 0 0 0
85 1 1 4.9709443095105821e-01 8.4002891395959836e+00 5.0917931132682908e+00 6.0488499766063359e+00 0 0 0
86 1 2 -5.7992396445695238e-01 9.7585582255333669e+00 4.9695570418824122e+00 6.2578671883225798e+00 0 0 0
87 1 3 4.2512534861284740e-01 1.0126798402954996e+01 4.6016916040620526e+00 7.4590801168981233e+00 0 0 0
88 1 3 4.2960402796458391e-01 1.0382994658048268e+01 5.1413166215848074e+00 5.3612259412736138e+00 0 0 0
89 1 2 -5.4547039301785516e-01 7.5125542805029930e+00 4.8174550469736399e+00 6.9992360847810540e+00 0 0 0
90 1 3 4.0512878797313606e-01 6.3231551776980934e+00 4.8689765926825466e+00 6.6522478741816897e+00 0 0 0
91 1 3 4.3127919282840266e-01 8.0724800260989493e+00 4.6372683571534621e+00 8.1217498928270242e+00 0 0 0
92 1 1 -1.1781900663837609e-01 7.9273910063337496e+00 5.5380247563418701e+00 4.6983675095815105e+00 0 0 0
93 1 2 4.3403239330028442e-01 8.9674052778305580e+00 5.9574849346336052e+00 3.6409506212657705e+00 0 0 0
94 1 4 -4.1137175118185798e-01 8.5956125422667533e+00 6.4539465616785652e+00 2.5248356531147786e+00 0 0 0
95 1 4 -4.9854563003244873e-01 1.0227245514113646e+01 5.8946192392913250e+00 3.9566221984242103e+00 0 0 0
96 1 2 3.5957531889893152e-01 6.6021343575440881e+00 5.6964261681804125e+00 4.4577180629231439e+00 0 0 0
97 1 4 -4.7552093766109854e-01 6.1862118897886109e+00 6.4012050905843498e+00 3.2894977168184947e+00 0 0 0
98 1 4 -4.4764988090203245e-01 5.6659298459034391e+00 5.3600152695967527e+00 5.3129699255666747e+00 0 0 0
99 1 1 4.9619735921949065e-01 7.4919601003658958e+00 2.0188172562148710e+00 2.1596490570308148e+01 0 0 -1
100 1 2 -5.4670996828934582e-01 6.1627693039979867e+00 2.2164762602431831e+00 2.1429799271128068e+01 0 0 -1
101 1 3 4.3649692728656198e-01 5.6136693415211631e+00 1.7353106322976863e+00 2.0486196528344642e+01 0 0 0
102 1 3 4.1165603874037204e-01 7.2909803522204326e+00 3.0215118169592041e+00 1.0882841853929155e+00 0 0 0
103 1 2 -4.8711522330201390e-01 8.3397847476612643e+00 1.4773960424095400e+00 2.0731255078625395e+01 0 0 0
104 1 3 3.9962405528794392e-01 9.5521069164518071e+00 1.4748302201078887e+00 2.1134678414816705e+01 0 0 0
105 1 3 4.3809864600967563e-01 7.9158860940310039e+00 1.1227128982732744e+00 1.9579328266901939e+01 0 0 0
106 1 1 -1.2366476230600433e-01 9.8607561487746835e+00 2.6381791151807832e+00 1.7429965446769788e+00 0 0 0
107 1 2 4.4843924737374941e-01 8.8422851095216046e+00 2.8907799655043798e+00 2.8302404889936348e+00 0 0 0
108 1 4 -4.6880490487832238e-01 9.2276269857785636e+00 2.8662388843690825e+00 4.0724834170658628e+00 0 0 0
109 1 4 -4.7877822574818130e-01 7.5898408010770337e+00 3.2284048995174395e+00 2.5777399883250744e+00 0 0 0
110 1 2 3.6295590923858539e-01 1.1224158380578150e+01 2.7224937592987692e+00 1.9975232650783163e+00 0 0 0
111 1 4 -4.5967098714638699e-01 1.1646424528731256e+01 3.3747024216052837e+00 3.1181774936184423e+00 0 0 0
112 1 4 -4.5122916306923511e-01 1.2124913086804668e+01 2.2659820382409941e+00 1.1235861547604331e+00 0 0 0
113 1 1 5.3126619176814516e-01 5.7039045195880247e+00 8.1248753771120725e+00 6.0398508297625808e+00 0 0 0
114 1 2 -6.1071832625965872e-01 4.3706280164016871e+00 8.0470498629314697e+00 5.8300744424698383e+00 0 0 0
115 1 3 4.5876869550520138e-01 3.9493030309814974e+00 8.2742463337253689e+00 4.8324883881825356e+00 0 0 0
116 1 3 4.2030051068472429e-01 3.6594202548855401e+00 7.5925055598049269e+00 6.7001887942719804e+00 0 0 0
117 1 2 -4.9246092795427915e-01 6.6392520871692176e+00 8.6132466371626357e+00 5.2155741895206438e+00 0 0 0
118 1 3 4.1364240678924352e-01 7.8888320604268793e+00 8.6153361691114068e+00 5.5246376849794174e+00 0 0 0
119 1 3 4.3593922348520908e-01 6.2296626853496360e+00 8.9616767279722787e+00 4.0474464492250961e+00 0 0 0
120 1 1 -1.1806502930254317e-01 6.1596595290339469e+00 7.6571962521794523e+00 7.3853814271220939e+00 0 0 0
121 1 2 4.3807647490878165e-01 5.1792307260849615e+00 7.3530260285643880e+00 8.4845298228346824e+00 0 0 0
122 1 4 -4.5205752424313278e-01 5.5444728249362276e+00 7.2024072525133436e+00 9.7298168592239342e+00 0 0 0
123 1 4 -4.6315960566291681e-01 3.9088637096273118e+00 7.2158133606148924e+00 8.1726290471410969e+00 0 0 0
124 1 2 3.7047155764131545e-01 7.5339105695459372e+00 7.4322903900982435e+00 7.5927282563619629e+00 0 0 0
125 1 4 -4.6293944442215967e-01 8.0006464528522674e+00 6.9878716971973702e+00 8.7863729957947605e+00 0 0 0
126 1 4 -4.2936654170014399e-01 8.4452971372046850e+00 7.8094522486329270e+00 6.6763792066144552e+00 0 0 0
127 1 1 4.6672224317274191e-01 5.9570776098877509e+00 1.0843223022936947e+01 1.1451790128396626e+01 0 0 0
128 1 2 -5.4963241701190058e-01 7.2857464722740026e+00 1.0768255051638320e+01 1.1670165801958227e+01 0 0 0
129 1 3 4.1530805230564821e-01 7.6321723018533580e+00 1.0961731688704170e+01 1.2835945847861113e+01 0 0 0
130 1 3 4.2478104477797191e-01 7.9552577471196582e+00 1.0431274888237862e+01 1.0764068004103271e+01 0 0 0
131 1 2 -4.8618819273617286e-01 5.0411467084851509e+00 1.1214376925888107e+01 1.2358275329250624e+01 0 0 0
132 1 3 4.1123810054322613e-01 3.8718839322843457e+00 1.1345263034753522e+01 1.1940691387589911e+01 0 0 0
133 1 3 4.2106282294911374e-01 5.5851416768091733e+00 1.1464586681945050e+01 1.3530512739082042e+01 0 0 0
134 1 1 -1.1371346626742307e-01 5.4790587754702260e+00 1.0516339684436140e+01 1.0073950515894685e+01 0 0 0
135 1 2 4.3661690327521219e-01 6.4413504913056689e+00 1.0328663555340388e+01 8.9674160301033226e+00 0 0 0
136 1 4 -4.3566738896858276e-01 6.0274844051233742e+00 1.0390874527415157e+01 7.7584612729813784e+00 0 0 0
137 1 4 -4.7948405233569263e-01 7.7107324518527616e+00 1.0121436077981940e+01 9.2341964547008430e+00 0 0 0
138 1 2 3.9430533904533915e-01 4.0647010872973812e+00 1.0381916974604788e+01 9.7723290315728786e+00 0 0 0
139 1 4 -4.7629600607056333e-01 3.7782168723233145e+00 9.7812751957648985e+00 8.5845046924094621e+00 0 0 0
140 1 4 -4.6043882601452757e-01 3.1869498417187989e+00 1.0816209255151335e+01 1.0642975648255508e+01 0 0 0
141 1 1 4.9369228510641822e-01 2.8836641293706999e+00 1.1141282836926841e+01 6.0815451644556253e+00 0 0 0
142 1 2 -5.6695599184485812e-01 4.1745258738362718e+00 1.1363131271225654e+01 6.3447624697700675e+00 0 0 0
143 1 3 4.6092807798332747e-01 4.5211298738223693e+00 1.0911745113667166e+01 7.2383464065679215e+00 0 0 0
144 1 3 4.0948817090302586e-01 4.7344114986280346e+00 1.2199651052481624e+01 5.5292440998821384e+00 0 0 0
145 1 2 -4.6948059008150211e-01 2.0123642506491248e+00 1.0505599703600382e+01 6.8758450442920553e+00 0 0 0
146 1 3 3.9617999760934985e-01 8.7549827187084506e-01 1.0351983207245414e+01 6.4398559740252281e+00 0 0 0
147 1 3 4.2978338326973203e-01 2.4103972849565785e+00 1.0113558359307174e+01 8.0650870021371937e+00 0 0 0
148 1 1 -1.0848987081875849e-01 2.4214794583413459e+00 1.1583534706647871e+01 4.7034929911640528e+00 0 0 0
149 1 2 4.5271441203887003e-01 3.4270703558194384e+00 1.1922106792098742e+01 3.6449244371461251e+00 0 0 0
150 1 4 -4.7328103661844734e-01 3.1029863540813163e+00 1.1785298596446161e+01 2.4106752596429954e+00 0 0 0
151 1 4 -4.8017617207412910e-01 4.6603334678860993e+00 1.2247941754610025e+01 4.0308246052961110e+00 0 0 0
152 1 2 3.9435739090164185e-01 1.5227058119433810e+01 1.1752346561673644e+01 4.4738835852320715e+00 -1 0 0
153 1 4 -4.7397398474250596e-01 1.4870774468136799e+01 1.2375823090421402e+01 3.3198469456389756e+00 0 0 0
154 1 4 -4.6052967746916240e-01 1.4379014750027551e+01 1.1221244018090520e+01 5.3207377135604244e+00 0 0 0
155 1 1 4.6463102953092900e-01 7.9145971949227656e-01 8.0840612390907118e+00 2.1901513587702297e+01 0 0 -1
156 1 2 -5.0056649681883736e-01 -4.9842526188648795e-01 8.1729722751229001e+00 2.1589871058014076e+01 1 0 -1
157 1 3 4.2141436531594723e-01 1.3157770853471582e+01 7.7521391102851380e+00 2.0469653743383354e+01 0 0 0
158 1 3 4.0589162120878619e-01 1.4888326494062676e+01 8.6830604305383758e+00 1.3836370442170756e+00 0 0 0
159 1 2 -5.0026242478399063e-01 1.7103495692955537e+00 7.7004532357975490e+00 2.0979454369733695e+01 0 0 0
160 1 3 4.1358835195107491e-01 2.8279150818151750e+00 7.6870997035074673e+00 2.1455495411356786e+01 0 0 0
161 1 3 4.3902931936234912e-01 1.2868592894966735e+00 7.4094008955160415e+00 1.9823633178594825e+01 0 0 0
162 1 1 -1.2335078427336525e-01 3.0678638919757031e+00 8.6322477949989000e+00 2.0857809764749398e+00 0 0 0
163 1 2 4.1925766019824062e-01 2.0930281911677660e+00 8.7532294979146315e+00 3.1920498202785899e+00 0 0 0
164 1 4 -4.2198372364399955e-01 2.4535598062177764e+00 8.8528639726744487e+00 4.4284072227709821e+00 0 0 0
165 1 4 -4.6804045096595098e-01 1.5038403618868376e+01 9.0674995252883726e+00 2.9015827251138337e+00 0 0 0
166 1 2 3.9014682168757009e-01 4.4521884047822571e+00 8.7131487262656702e+00 2.3981171706529265e+00 0 0 0
167 1 4 -4.4687606075806219e-01 4.8388621117357564e+00 9.3280066825068140e+00 3.5314064153557450e+00 0 0 0
168 1 4 -4.2661138555888556e-01 5.3898501588213579e+00 8.3118643310455624e+00 1.5656720032776712e+00 0 0 0
169 1 1 4.5399996467935128e-01 1.2816015944206452e+01 7.8635133231059333e+00 5.8968227878755304e+00 0 0 0
170 1 2 -4.8904985264943585e-01 1.1536857632893966e+01 7.5445023978010370e+00 5.5391029270934933e+00 0 0 0
171 1 3 4.2339306172006841e-01 1.1104083879750361e+01 7.9251423413731903e+00 4.4704010712576068e+00 0 0 0
172 1 3 4.0773510347846065e-01 1.0871891573986661e+01 7.0215829166412824e+00 6.4391220693498763e+00 0 0 0
173 1 2 -4.5882296284667706e-01 1.3622355847080271e+01 8.4617209986399864e+00 5.0180918004318906e+00 0 0 0
174 1 3 3.8614678034454752e-01 1.4737217964597722e+01 8.6895655449107991e+00 5.6351421968849049e+00 0 0 0
175 1 3 4.4485725387969649e-01 1.3317113237245760e+01 8.7081971455913081e+00 3.8031893403790069e+00 0 0 0
176 1 1 -1.1124899177947666e-01 1.3231414555092190e+01 7.5188249026849983e+00 7.3150876029955585e+00 0 0 0
177 1 2 4.1859181884666707e-01 1.2226901934135427e+01 7.1736081008923023e+00 8.3382788188266641e+00 0 0 0
178 1 4 -4.7104578668903158e-01 1.2472543439373142e+01 7.2777593394698181e+00 9.6514683006251722e+00 0 0 0
179 1 4 -4.5952122697319320e-01 1.0975908838736558e+01 7.0070446185213848e+00 7.9802602988766882e+00 0 0 0
180 1 2 3.4221060423144861e-01 3.8167646113779718e-01 7.6637628404616835e+00 7.6754147329337954e+00 1 0 0
181 1 4 -4.1875911619394207e-01 8.4131068230167827e-01 7.1266655946422155e+00 8.8038924877261184e+00 0 0 0
182 1 4 -4.6365514594938118e-01 1.2897883027959200e+00 8.0962792164248487e+00 6.7618859222574050e+00 0 0 0
183 1 1 4.8895453770440478e-01 1.3034580155035481e+01 1.0972986059228042e+01 1.1419835994905132e+01 0 0 0
184 1 2 -6.3811709385280280e-01 1.4410254848070117e+01 1.1105298921406551e+01 1.1663816990460910e+01 -1 0 0
185 1 3 4.7344195367612463e-01 6.5775578214236563e-01 1.1644812007090621e+01 1.2545364773348664e+01 0 0 0
186 1 3 4.2981594043356153e-01 8.1674502430793328e-01 1.0793094537059094e+01 1.0791455247089816e+01 0 0 0
187 1 2 -5.4817355284937608e-01 1.2100205036110728e+01 1.1263899411587744e+01 1.2326290461407231e+01 0 0 0
188 1 3 4.2659313626266093e-01 1.1080501112170294e+01 1.1224751316105110e+01 1.1921637146642546e+01 0 0 0
189 1 3 4.2668393327490139e-01 1.2626427888284727e+01 1.1652400417372114e+01 1.3502265393469777e+01 0 0 0
190 1 1 -1.3850553353027395e-01 1.2622401887718359e+01 1.0538689622585480e+01 1.0060713692787360e+01 0 0 0
191 1 2 4.3841670513757619e-01 1.3682964654916477e+01 1.0357698221149406e+01 8.9111256664785063e+00 0 0 0
192 1 4 -4.5681673052721444e-01 1.3209969744938693e+01 1.0169437898548388e+01 7.7458707997102465e+00 0 0 0
193 1 4 -4.6503429868601376e-01 7.3922269052527478e-01 1.0317266733975007e+01 9.1987474787657284e+00 0 0 0
194 1 2 3.7961255938673644e-01 1.1312873480448619e+01 1.0293835342700632e+01 9.7143038054262867e+00 0 0 0
195 1 4 -4.8543313447456288e-01 1.0869269200402309e+01 9.7060346311770935e+00 8.5026166829286396e+00 0 0 0
196 1 4 -4.3387066051521039e-01 1.0398672944185520e+01 1.0582260359202731e+01 1.0598581921854221e+01 0 0 0
197 1 1 5.0376201254153530e-01 1.0015133347132741e+01 1.0910164462808620e+01 6.0026293894867466e+00 0 0 0
198 1 2 -5.6971245460639086e-01 1.1344118638753338e+01 1.0828898604632787e+01 6.1618754883474365e+00 0 0 0
199 1 3 4.4755279027946798e-01 1.1587147785728702e+01 1.0426052850760136e+01 7.3261277388507562e+00 0 0 0
200 1 3 4.5110507912265840e-01 1.2035448745252515e+01 1.1201754790460612e+01 5.3754901654892340e+00 0 0 0
201 1 2 -4.9771633949463862e-01 9.1043422151235749e+00 1.0543000713707080e+01 6.9721072552593730e+00 0 0 0
202 1 3 4.0835114657287663e-01 7.9418744976694908e+00 1.0894482943599925e+01 6.7847452607570480e+00 0 0 0
203 1 3 4.3814607946044903e-01 9.4678257376547741e+00 1.0070781580730163e+01 8.1019605440026439e+00 0 0 0
204 1 1 -1.1147950141156057e-01 9.4729889241767697e+00 1.1470586720080910e+01 4.7498461612349949e+00 0 0 0
205 1 2 4.5210487903076046e-01 1.0522327002245721e+01 1.1852136204018478e+01 3.6047597852072246e+00 0 0 0
206 1 4 -4.4424635045119049e-01 1.0150484287306124e+01 1.2064628883036907e+01 2.4235064067901373e+00 0 0 0
207 1 4 -4.3794771112736947e-01 1.1786155789700709e+01 1.1774384578289371e+01 3.9038816738566626e+00 0 0 0
208 1 2 3.7598377982909487e-01 8.1469391651967449e+00 1.1762594083499511e+01 4.5689759428174348e+00 0 0 0
209 1 4 -4.9886542870572514e-01 7.7656461552351734e+00 1.2422399273954323e+01 3.4115845449334627e+00 0 0 0
210 1 4 -4.3592027589829718e-01 7.2536697412826125e+00 1.1499694251380308e+01 5.4999180474776121e+00 0 0 0
211 1 1 4.9353979741337245e-01 7.7840706903056294e+00 8.0062474068573088e+00 2.1798179756698119e+01 0 0 -1
212 1 2 -4.9375919699957560e-01 6.4774336350947221e+00 8.1166269082526075e+00 2.1611799148339138e+01 0 0 -1
213 1 3 4.1636845960904023e-01 5.9098811071042316e+00 7.8201264755204623e+00 2.0514174595349068e+01 0 0 0
214 1 3 3.9562407461088006e-01 7.7523905643888646e+00 8.8508391918644982e+00 1.4423792549771621e+00 0 0 0
215 1 2 -5.0439759904507475e-01 8.6520539800485636e+00 7.4972224107941052e+00 2.0937339109721066e+01 0 0 0
216 1 3 4.1099698259125161e-01 9.8815757750657909e+00 7.5527717494530302e+00 2.1299511812350161e+01 0 0 0
217 1 3 4.2568912650751600e-01 8.2950683044243334e+00 7.1553705490851298e+00 1.9776819812641676e+01 0 0 0
218 1 1 -1.1659316904402955e-01 1.0135151544999806e+01 8.6349144682664978e+00 1.9702869453974508e+00 0 0 0
219 1 2 4.2623768191318634e-01 9.2739803783957715e+00 8.8013954284299558e+00 3.1466371296261912e+00 0 0 0
220 1 4 -4.4334587003926118e-01 9.7379171747774524e+00 8.6667927069358370e+00 4.3622273247718262e+00 0 0 0
221 1 4 -4.6827660624396306e-01 8.0037581621316569e+00 9.1322668567821879e+00 2.9366945099897546e+00 0 0 0
222 1 2 3.6171303337287436e-01 1.1569714895765287e+01 8.8161570164946106e+00 2.1510156044414153e+00 0 0 0
223 1 4 -4.3171623519797714e-01 1.1995750457201988e+01 9.2735762509206943e+00 3.3462657131592350e+00 0 0 0
224 1 4 -4.2725863715894447e-01 1.2451736610229222e+01 8.3745898827811303e+00 1.2769592409851025e+00 0 0 0
225 1 1 5.1612200849542933e-01 4.1836024338459961e+00 1.9995581979510251e+00 1.6350783533307691e+01 0 0 0
226 1 2 -5.2339237888702439e-01 2.8649371401032533e+00 1.9964461822567807e+00 1.6197386106824361e+01 0 0 0
227 1 3 4.3804269626876374e-01 2.4072302633624454e+00 2.3889178297594373e+00 1.5179206181177999e+01 0 0 0
228 1 3 4.0655987052888565e-01 2.1543618920369090e+00 1.3353481299574756e+00 1.7091435308937584e+01 0 0 0
229 1 2 -5.2932798154597260e-01 5.0259536178305586e+00 2.3942416714840116e+00 1.5431746027335979e+01 0 0 0
230 1 3 3.9997251993869032e-01 6.1786897647142833e+00 2.2897145577937095e+00 1.5809744732393817e+01 0 0 0
231 1 3 4.3741968646160356e-01 4.7879328585628809e+00 3.0203003228439731e+00 1.4347649883116212e+01 0 0 0
232 1 1 -1.0990495485861902e-01 4.7950676403991412e+00 1.5113581807831342e+00 1.7676995240169433e+01 0 0 0
233 1 2 4.4559040595261912e-01 3.8536083061091722e+00 1.0819439662777626e+00 1.8753332181928862e+01 0 0 0
234 1 4 -4.6356937072162135e-01 4.1721443696625489e+00 1.2009565791404762e+00 2.0013914242878108e+01 0 0 0
235 1 4 -4.8618912933767544e-01 2.5745695271058393e+00 8.5514931095725288e-01 1.8416658022862720e+01 0 0 0
236 1 2 3.5870329023472353e-01 6.1532469462482249e+00 1.4495390554895169e+00 1.7988357745514286e+01 0 0 0
237 1 4 -4.5238153489688238e-01 6.5033938078379077e+00 7.5355436720131919e-01 1.9094321381727255e+01 0 0 0
238 1 4 -4.8379471894253029e-01 6.9662071659100153e+00 1.9858491706008166e+00 1.7079524568203503e+01 0 0 0
239 1 1 4.9386744231732749e-01 3.5166139017062661e+00 5.0029739087037628e+00 2.1906359277361048e+01 0 0 0
240 1 2 -5.2909988748804326e-01 6.6232337111830546e+00 5.2285419658369614e+00 9.8149639463544447e-01 0 0 1
241 1 3 4.3251626745224403e-01 6.8552255279260290e+00 5.7979459373306836e+00 2.0595570093231341e+00 0 0 0
242 1 3 4.1447328937702393e-01 5.5950192066932152e+00 4.6630322450569093e+00 2.1198754916720503e+01 0 0 0
243 1 2 -5.3426806341875044e-01 4.3979370101438349e+00 5.5062307132224877e+00 1.6372269336872129e+00 0 0 0
244 1 3 4.2299878654645506e-01 3.1876876873317670e+00 5.3854953579925242e+00 1.3602714756807681e+00 0 0 0
245 1 3 4.3370296671383085e-01 4.9045988219607315e+00 5.7707853834291534e+00 2.7468718977507871e+00 0 0 0
246 1 1 -1.1861935309997698e-01 3.0327876239775144e+00 4.4375660673573556e+00 2.0580768935484826e+01 0 0 0
247 1 2 4.1861394544205233e-01 3.9740031951095984e+00 4.1839111876806800e+00 1.9518868923828691e+01 0 0 0
248 1 4 -4.6242656145129846e-01 3.6703122487468809e+00 3.9094491147058212e+00 1.8260368472414285e+01 0 0 0
249 1 4 -4.5438376642829681e-01 5.2842230846094687e+00 4.2215820040804282e+00 1.9803792445683015e+01 0 0 0
250 1 2 3.7865759537185556e-01 1.6506138534344172e+00 4.2331685986967713e+00 2.0370592525965733e+01 0 0 0
251 1 4 -4.3837129504692052e-01 1.1289213171281713e+00 3.5066296616841135e+00 1.9325027294130997e+01 0 0 0
252 1 4 -4.2835359655638949e-01 7.4546714980804740e-01 4.5985103350683501e+00 2.1270893470789808e+01 0 0 0
253 1 1 5.4726426263397854e-01 4.5536278229312899e-01 4.9233907732893991e+00 1.6734688402794397e+01 0 0 0
254 1 2 -5.5324213041663184e-01 1.7466611525784266e+00 4.7155731939206094e+00 1.6808292188271821e+01 0 0 0
255 1 3 4.3351806134609400e-01 2.2093118112680212e+00 4.1260032147665413e+00 1.7817473672007679e+01 0 0 0
256 1 3 4.1973126911593800e-01 2.5549890038064427e+00 5.0334819871074918e+00 1.5907422745308489e+01 0 0 0
257 1 2 -5.3470934355439281e-01 -3.7530667407765561e-01 4.5490386764683457e+00 1.7657565848939655e+01 0 0 0
258 1 3 3.9194161743367129e-01 1.2610060740925467e+01 4.7942329410484641e+00 1.7460909077299185e+01 -1 0 0
259 1 3 4.3792232481534465e-01 -1.9952448259623745e-01 3.9017200440204269e+00 1.8787744246609527e+01 0 0 0
260 1 1 -1.1833424721968964e-01 -8.2325241593543819e-02 5.5474761493215627e+00 1.5419847896010761e+01 0 0 0
261 1 2 4.5529816611036467e-01 9.4156479809076021e-01 6.0722660644214965e+00 1.4384341562447059e+01 0 0 0
262 1 4 -4.4092314970396967e-01 5.6207780725196721e-01 6.5075195699966537e+00 1.3289221646676280e+01 0 0 0
263 1 4 -5.0245703666065300e-01 2.2549717285267334e+00 5.9077004708360139e+00 1.4672155154860146e+01 0 0 0
264 1 2 3.2979795813258772e-01 1.2796877749503865e+01 5.7133395263814952e+00 1.5308388848364514e+01 -1 0 0
265 1 4 -4.5793353722522101e-01 1.2237395628522322e+01 6.3729058857122602e+00 1.4143268341014263e+01 0 0 0
266 1 4 -4.6062708510498884e-01 1.1892498534399008e+01 5.3565416516834787e+00 1.6205547993279477e+01 0 0 0
267 1 1 4.7355299327104095e-01 1.1950124507200170e+00 2.1467269244207827e+00 1.1157270972615008e+01 0 0 0
268 1 2 -5.0524196046278913e-01 -8.3886795936496394e-02 2.3548641778511739e+00 1.0844422476406601e+01 1 0 0
269 1 3 4.1180683642886851e-01 -4.3686954709068426e-01 1.7835939266531007e+00 9.7217519676918069e+00 1 0 0
270 1 3 4.1385794840493156e-01 1.3331825383696515e+01 2.7258883663721507e+00 1.1710111023278035e+01 0 0 0
271 1 2 -5.0511943980985519e-01 2.1393108281476794e+00 1.6826991323120946e+00 1.0316004778952214e+01 0 0 0
272 1 3 3.9660857800877447e-01 3.2843926990878924e+00 1.5515755327027538e+00 1.0828207021405381e+01 0 0 0
273 1 3 4.2798962265056151e-01 1.7660956793195410e+00 1.2831481634420578e+00 9.1867743748832869e+00 0 0 0
274 1 1 -1.1157347840523581e-01 1.6349306262107040e+00 2.6071577417856062e+00 1.2526457340766273e+01 0 0 0
275 1 2 4.4908161210374109e-01 5.9447637552404586e-01 2.8653618504754537e+00 1.3572146965040126e+01 0 0 0
276 1 4 -4.7434445597229447e-01 9.1907100049333512e-01 2.8459870607898927e+00 1.4837044752593043e+01 0 0 0
277 1 4 -4.7681581951460578e-01 -6.1156178393136451e-01 3.1512771090398286e+00 1.3212768615211710e+01 1 0 0
278 1 2 3.6331051518135699e-01 3.0157045787940193e+00 2.6786615166498096e+00 1.2747222905800166e+01 0 0 0