ITEM: TIMESTEP
0
ITEM: NUMBER OF ATOMS
576
ITEM: BOX BOUNDS xy xz yz pp pp pp
-3.8734541101000000e+00 1.7704000473000001e+01 0.0000000000000000e+00
0.0000000000000000e+00 2.5111999511699999e+01 -3.8734541101000000e+00
0.0000000000000000e+00 1.2813326682700000e+01 0.0000000000000000e+00
ITEM: ATOMS id type xs ys zs
1 1 0.22376 0.315804 0.868584
2 1 0.77624 0.684197 0.131416
3 1 0.0262398 0.565803 0.631416
4 1 0.47376 0.934196 0.368584
5 1 0.22376 0.815804 0.868584
6 1 0.77624 0.184197 0.131416
7 1 0.0262397 0.0658035 0.631416
8 1 0.47376 0.434197 0.368584
9 1 0.72376 0.315804 0.868584
10 1 0.27624 0.684197 0.131416
11 1 0.52624 0.565804 0.631416
12 1 0.97376 0.934196 0.368584
13 1 0.72376 0.815803 0.868584
14 1 0.27624 0.184197 0.131416
15 1 0.52624 0.0658034 0.631416
16 1 0.97376 0.434197 0.368584
17 1 0.156666 0.318181 0.682864
18 1 0.843334 0.681819 0.317136
19 1 0.093334 0.568181 0.817136
20 1 0.406666 0.931819 0.182864
21 1 0.156666 0.81818 0.682865
22 1 0.843334 0.181819 0.317136
23 1 0.093334 0.0681811 0.817136
24 1 0.406666 0.431819 0.182864
25 1 0.656666 0.318182 0.682864
26 1 0.343334 0.681819 0.317136
27 1 0.593334 0.568181 0.817136
28 1 0.906666 0.931819 0.182864
29 1 0.656666 0.818181 0.682864
30 1 0.343334 0.181819 0.317136
31 1 0.593334 0.0681816 0.817136
32 1 0.906666 0.431819 0.182864
33 1 0.277617 0.256624 0.694105
34 1 0.722383 0.743376 0.305895
35 1 0.972383 0.506624 0.805895
36 1 0.527617 0.993376 0.194105
37 1 0.277617 0.756624 0.694105
38 1 0.722383 0.243376 0.305895
39 1 0.972383 0.00662405 0.805895
40 1 0.527618 0.493376 0.194105
41 1 0.777617 0.256624 0.694105
42 1 0.222382 0.743376 0.305895
43 1 0.472383 0.506624 0.805895
44 1 0.0276172 0.993376 0.194105
45 1 0.777617 0.756624 0.694105
46 1 0.222383 0.243376 0.305895
47 1 0.472382 0.00662416 0.805895
48 1 0.0276175 0.493376 0.194105
49 1 0.296748 0.278972 0.87639
50 1 0.703252 0.721028 0.12361
51 1 0.953252 0.528972 0.62361
52 1 0.546749 0.971028 0.37639
53 1 0.296749 0.778972 0.87639
54 1 0.703252 0.221028 0.12361
55 1 0.953251 0.0289721 0.62361
56 1 0.546748 0.471028 0.37639
57 1 0.796749 0.278972 0.876391
58 1 0.203252 0.721028 0.12361
59 1 0.453251 0.528972 0.62361
60 1 0.0467486 0.971028 0.37639
61 1 0.796748 0.778972 0.87639
62 1 0.203252 0.221028 0.12361
63 1 0.453252 0.0289723 0.62361
64 1 0.0467485 0.471028 0.37639
65 1 0.333155 0.307396 0.721469
66 1 0.666845 0.692604 0.278531
67 1 0.916845 0.557396 0.778531
68 1 0.583155 0.942604 0.221469
69 1 0.333156 0.807396 0.721469
70 1 0.666845 0.192604 0.278531
71 1 0.916845 0.057396 0.77853
72 1 0.583155 0.442604 0.221469
73 1 0.833155 0.307396 0.721469
74 1 0.166845 0.692604 0.278531
75 1 0.416845 0.557396 0.778531
76 1 0.0831551 0.942604 0.221469
77 1 0.833155 0.807396 0.721469
78 1 0.166845 0.192604 0.278531
79 1 0.416845 0.0573961 0.778531
80 1 0.083155 0.442604 0.221469
81 1 0.214021 0.367387 0.711782
82 1 0.785978 0.632614 0.288217
83 1 0.0359782 0.617387 0.788217
84 1 0.464022 0.882613 0.211783
85 1 0.21402 0.867387 0.711781
86 1 0.785978 0.132614 0.288217
87 1 0.0359783 0.117387 0.788217
88 1 0.464022 0.382614 0.211783
89 1 0.714022 0.367386 0.711783
90 1 0.285978 0.632614 0.288217
91 1 0.535978 0.617387 0.788217
92 1 0.964022 0.882613 0.211783
93 1 0.714022 0.867387 0.711783
94 1 0.285978 0.132614 0.288217
95 1 0.535978 0.117386 0.788217
96 1 0.964022 0.382614 0.211783
97 2 0.209869 0.32056 0.942919
98 2 0.790131 0.67944 0.0570812
99 2 0.0401307 0.57056 0.557081
100 2 0.459869 0.92944 0.442919
101 2 0.209869 0.82056 0.942919
102 2 0.790131 0.17944 0.0570812
103 2 0.0401306 0.0705598 0.557081
104 2 0.459869 0.42944 0.442919
105 2 0.709869 0.32056 0.942919
106 2 0.290131 0.67944 0.0570812
107 2 0.540131 0.57056 0.557081
108 2 0.959869 0.92944 0.442919
109 2 0.709869 0.82056 0.942919
110 2 0.290131 0.17944 0.0570812
111 2 0.540131 0.0705598 0.557081
112 2 0.959869 0.42944 0.442919
113 2 0.098404 0.328532 0.629537
114 2 0.901596 0.671468 0.370463
115 2 0.151596 0.578532 0.870463
116 2 0.348404 0.921468 0.129537
117 2 0.098404 0.828532 0.629537
118 2 0.901596 0.171468 0.370463
119 2 0.151596 0.0785319 0.870463
120 2 0.348404 0.421468 0.129537
121 2 0.598404 0.328532 0.629537
122 2 0.401596 0.671468 0.370463
123 2 0.651596 0.578532 0.870463
124 2 0.848404 0.921468 0.129537
125 2 0.598404 0.828532 0.629537
126 2 0.401596 0.171468 0.370463
127 2 0.651596 0.0785318 0.870463
128 2 0.848404 0.421468 0.129537
129 2 0.295949 0.22777 0.643881
130 2 0.704051 0.77223 0.356119
131 2 0.954051 0.47777 0.856119
132 2 0.545949 0.0222305 0.143881
133 2 0.295949 0.72777 0.643881
134 2 0.704051 0.27223 0.356119
135 2 0.954051 0.97777 0.856119
136 2 0.545949 0.52223 0.143881
137 2 0.795949 0.22777 0.643881
138 2 0.204051 0.77223 0.356119
139 2 0.454051 0.47777 0.856119
140 2 0.0459492 0.0222305 0.143881
141 2 0.795949 0.72777 0.643881
142 2 0.204051 0.27223 0.356119
143 2 0.454051 0.97777 0.856119
144 2 0.0459492 0.52223 0.143881
145 2 0.319868 0.264573 0.956864
146 2 0.680132 0.735427 0.0431358
147 2 0.930132 0.514573 0.543136
148 2 0.569868 0.985427 0.456864
149 2 0.319868 0.764573 0.956864
150 2 0.680132 0.235427 0.0431358
151 2 0.930132 0.014573 0.543136
152 2 0.569868 0.485427 0.456864
153 2 0.819868 0.264573 0.956864
154 2 0.180132 0.735427 0.0431358
155 2 0.430132 0.514573 0.543136
156 2 0.0698684 0.985427 0.456864
157 2 0.819868 0.764573 0.956864
158 2 0.180132 0.235427 0.0431358
159 2 0.430132 0.0145731 0.543136
160 2 0.0698683 0.485427 0.456864
161 2 0.38375 0.306307 0.689279
162 2 0.61625 0.693693 0.310721
163 2 0.86625 0.556307 0.810721
164 2 0.63375 0.943693 0.189279
165 2 0.383749 0.806307 0.689279
166 2 0.61625 0.193693 0.310721
167 2 0.86625 0.056307 0.810721
168 2 0.63375 0.443693 0.189279
169 2 0.88375 0.306307 0.689279
170 2 0.11625 0.693693 0.310721
171 2 0.36625 0.556307 0.810721
172 2 0.13375 0.943693 0.189279
173 2 0.88375 0.806307 0.689279
174 2 0.11625 0.193693 0.310721
175 2 0.36625 0.056307 0.810721
176 2 0.13375 0.443693 0.189279
177 2 0.186593 0.405154 0.678071
178 2 0.813407 0.594846 0.321929
179 2 0.0634071 0.655154 0.821929
180 2 0.436593 0.844846 0.178071
181 2 0.186593 0.905154 0.678071
182 2 0.813407 0.0948463 0.321929
183 2 0.0634071 0.155154 0.821929
184 2 0.436593 0.344846 0.178071
185 2 0.686593 0.405154 0.678071
186 2 0.313407 0.594846 0.321929
187 2 0.563407 0.655154 0.821929
188 2 0.936593 0.844846 0.178071
189 2 0.686593 0.905154 0.678071
190 2 0.313407 0.0948463 0.321929
191 2 0.563407 0.155154 0.821929
192 2 0.936593 0.344846 0.178071
193 3 0.150714 0.295362 0.78685
194 3 0.849286 0.704638 0.213149
195 3 0.0992863 0.545362 0.71315
196 3 0.400714 0.954638 0.28685
197 3 0.150714 0.795362 0.786849
198 3 0.849286 0.204638 0.213149
199 3 0.0992862 0.0453622 0.71315
200 3 0.400714 0.454638 0.286851
201 3 0.650714 0.295362 0.786851
202 3 0.349286 0.704638 0.213149
203 3 0.599286 0.545362 0.71315
204 3 0.900714 0.954638 0.28685
205 3 0.650714 0.795362 0.78685
206 3 0.349286 0.204638 0.213149
207 3 0.599286 0.0453621 0.713149
208 3 0.900714 0.454638 0.286851
209 3 0.0704154 0.304527 0.80627
210 3 0.929584 0.695473 0.19373
211 3 0.179585 0.554527 0.69373
212 3 0.320415 0.945473 0.30627
213 3 0.0704155 0.804527 0.80627
214 3 0.929584 0.195473 0.19373
215 3 0.179584 0.0545267 0.69373
216 3 0.320416 0.445473 0.30627
217 3 0.570415 0.304527 0.80627
218 3 0.429584 0.695473 0.19373
219 3 0.679585 0.554527 0.69373
220 3 0.820415 0.945473 0.30627
221 3 0.570416 0.804527 0.80627
222 3 0.429584 0.195473 0.19373
223 3 0.679584 0.0545267 0.69373
224 3 0.820416 0.445473 0.30627
225 3 0.194373 0.274369 0.636007
226 3 0.805627 0.725631 0.363993
227 3 0.0556266 0.524369 0.863993
228 3 0.444373 0.975631 0.136007
229 3 0.194373 0.77437 0.636007
230 3 0.805627 0.225631 0.363993
231 3 0.0556268 0.0243694 0.863993
232 3 0.444373 0.475631 0.136007
233 3 0.694374 0.274369 0.636007
234 3 0.305627 0.725631 0.363993
235 3 0.555626 0.524369 0.863993
236 3 0.944373 0.975631 0.136007
237 3 0.694373 0.774369 0.636007
238 3 0.305627 0.225631 0.363993
239 3 0.555627 0.024369 0.863993
240 3 0.944373 0.475631 0.136007
241 3 0.151734 0.25284 0.527864
242 3 0.848267 0.747161 0.472137
243 3 0.0982665 0.502839 0.972136
244 3 0.401734 0.99716 0.0278644
245 3 0.151733 0.752839 0.527863
246 3 0.848267 0.247161 0.472136
247 3 0.0982668 0.0028394 0.972137
248 3 0.401733 0.497161 0.0278634
249 3 0.651734 0.25284 0.527865
250 3 0.348267 0.747161 0.472137
251 3 0.598266 0.50284 0.972136
252 3 0.901734 0.99716 0.0278644
253 3 0.651733 0.752839 0.527863
254 3 0.348267 0.247161 0.472137
255 3 0.598267 0.00283942 0.972136
256 3 0.901733 0.497161 0.0278635
257 3 0.284228 0.232259 0.800172
258 3 0.715772 0.767741 0.199827
259 3 0.965772 0.482259 0.699827
260 3 0.534228 0.0177409 0.300172
261 3 0.284227 0.732259 0.800172
262 3 0.715772 0.267741 0.199827
263 3 0.965773 0.982259 0.699828
264 3 0.534228 0.517741 0.300173
265 3 0.784228 0.232259 0.800172
266 3 0.215772 0.767741 0.199827
267 3 0.465772 0.482259 0.699828
268 3 0.0342276 0.0177409 0.300172
269 3 0.784228 0.732259 0.800173
270 3 0.215772 0.267741 0.199827
271 3 0.465772 0.982259 0.699827
272 3 0.0342276 0.517741 0.300173
273 3 0.220372 0.193074 0.806283
274 3 0.779629 0.806927 0.193717
275 3 0.0296285 0.443074 0.693717
276 3 0.470372 0.0569261 0.306283
277 3 0.220371 0.693073 0.806283
278 3 0.779629 0.306927 0.193717
279 3 0.0296289 0.943073 0.693717
280 3 0.470371 0.556927 0.306283
281 3 0.720372 0.193074 0.806283
282 3 0.279629 0.806927 0.193717
283 3 0.529628 0.443074 0.693717
284 3 0.970372 0.0569261 0.306283
285 3 0.720371 0.693073 0.806283
286 3 0.279629 0.306927 0.193717
287 3 0.529629 0.943073 0.693717
288 3 0.970371 0.556927 0.306283
289 3 0.3623 0.304996 0.83904
290 3 0.6377 0.695004 0.160961
291 3 0.8877 0.554996 0.66096
292 3 0.6123 0.945004 0.33904
293 3 0.3623 0.804995 0.83904
294 3 0.6377 0.195004 0.160961
295 3 0.8877 0.0549954 0.66096
296 3 0.612299 0.445004 0.339039
297 3 0.8623 0.304996 0.83904
298 3 0.1377 0.695004 0.160961
299 3 0.3877 0.554996 0.66096
300 3 0.1123 0.945004 0.33904
301 3 0.8623 0.804996 0.839039
302 3 0.1377 0.195004 0.160961
303 3 0.3877 0.0549959 0.660961
304 3 0.1123 0.445004 0.339039
305 3 0.399166 0.35379 0.90039
306 3 0.600834 0.64621 0.09961
307 3 0.850834 0.60379 0.59961
308 3 0.649166 0.89621 0.40039
309 3 0.399166 0.853789 0.90039
310 3 0.600834 0.14621 0.0996101
311 3 0.850834 0.103789 0.59961
312 3 0.649166 0.39621 0.40039
313 3 0.899166 0.35379 0.90039
314 3 0.100834 0.64621 0.09961
315 3 0.350834 0.60379 0.59961
316 3 0.149166 0.89621 0.40039
317 3 0.899166 0.85379 0.90039
318 3 0.100834 0.14621 0.09961
319 3 0.350834 0.10379 0.59961
320 3 0.149166 0.39621 0.40039
321 3 0.28406 0.355642 0.671085
322 3 0.71594 0.644358 0.328914
323 3 0.96594 0.605642 0.828914
324 3 0.53406 0.894358 0.171086
325 3 0.284061 0.855641 0.671086
326 3 0.71594 0.144358 0.328914
327 3 0.96594 0.105642 0.828914
328 3 0.534059 0.394358 0.171086
329 3 0.784059 0.355642 0.671086
330 3 0.21594 0.644358 0.328914
331 3 0.46594 0.605642 0.828914
332 3 0.0340599 0.894358 0.171086
333 3 0.78406 0.855642 0.671086
334 3 0.21594 0.144358 0.328914
335 3 0.465941 0.105642 0.828914
336 3 0.0340596 0.394358 0.171086
337 3 0.328083 0.403717 0.644402
338 3 0.671917 0.596283 0.355598
339 3 0.921917 0.653717 0.855598
340 3 0.578083 0.846283 0.144402
341 3 0.328083 0.903717 0.644402
342 3 0.671917 0.0962832 0.355598
343 3 0.921917 0.153717 0.855598
344 3 0.578083 0.346283 0.144402
345 3 0.828083 0.403717 0.644402
346 3 0.171917 0.596283 0.355598
347 3 0.421917 0.653717 0.855598
348 3 0.0780833 0.846283 0.144402
349 3 0.828083 0.903717 0.644402
350 3 0.171917 0.0962832 0.355598
351 3 0.421917 0.153717 0.855598
352 3 0.0780832 0.346283 0.144402
353 3 0.240254 0.370639 0.83112
354 3 0.759746 0.629361 0.168881
355 3 0.00974598 0.620639 0.66888
356 3 0.490254 0.879361 0.33112
357 3 0.240254 0.870638 0.831121
358 3 0.759746 0.129361 0.168881
359 3 0.00974591 0.120639 0.66888
360 3 0.490254 0.379361 0.331119
361 3 0.740254 0.370639 0.831119
362 3 0.259746 0.629361 0.168881
363 3 0.509746 0.620639 0.66888
364 3 0.990254 0.879361 0.33112
365 3 0.740254 0.870639 0.831119
366 3 0.259746 0.129361 0.168881
367 3 0.509746 0.120639 0.668881
368 3 0.990254 0.379361 0.331119
369 3 0.20647 0.418237 0.875386
370 3 0.79353 0.581763 0.124614
371 3 0.0435304 0.668237 0.624614
372 3 0.45647 0.831763 0.375386
373 3 0.20647 0.918237 0.875386
374 3 0.79353 0.0817626 0.124614
375 3 0.0435304 0.168237 0.624614
376 3 0.45647 0.331763 0.375386
377 3 0.70647 0.418237 0.875386
378 3 0.29353 0.581763 0.124614
379 3 0.54353 0.668237 0.624614
380 3 0.95647 0.831763 0.375386
381 3 0.70647 0.918237 0.875386
382 3 0.29353 0.0817626 0.124614
383 3 0.54353 0.168237 0.624614
384 3 0.95647 0.331763 0.375386
385 4 0.00895178 0.308724 0.728141
386 4 0.991048 0.691276 0.271859
387 4 0.241048 0.558724 0.771859
388 4 0.258952 0.941276 0.228141
389 4 0.00895192 0.808724 0.728141
390 4 0.991048 0.191276 0.271859
391 4 0.241048 0.0587238 0.771859
392 4 0.258952 0.441276 0.228141
393 4 0.508952 0.308724 0.728141
394 4 0.491048 0.691276 0.271859
395 4 0.741048 0.558724 0.771859
396 4 0.758952 0.941276 0.228141
397 4 0.508952 0.808724 0.728141
398 4 0.491048 0.191276 0.271859
399 4 0.741048 0.0587238 0.771859
400 4 0.758952 0.441276 0.228141
401 4 0.0662812 0.299111 0.899255
402 4 0.933719 0.700889 0.100745
403 4 0.183719 0.549111 0.600745
404 4 0.316281 0.950889 0.399255
405 4 0.0662813 0.799111 0.899255
406 4 0.933719 0.200889 0.100745
407 4 0.183719 0.0491111 0.600745
408 4 0.316281 0.450889 0.399255
409 4 0.566281 0.299111 0.899255
410 4 0.433719 0.700889 0.100745
411 4 0.683719 0.549111 0.600745
412 4 0.816281 0.950889 0.399255
413 4 0.566281 0.799111 0.899255
414 4 0.433719 0.200889 0.100745
415 4 0.683719 0.0491111 0.600745
416 4 0.816281 0.450889 0.399255
417 4 0.183397 0.214311 0.492843
418 4 0.816603 0.785689 0.507157
419 4 0.0666027 0.464311 0.00715734
420 4 0.433397 0.0356895 0.992842
421 4 0.183397 0.714311 0.492843
422 4 0.816603 0.285689 0.507157
423 4 0.066603 0.964311 0.00715709
424 4 0.433397 0.535689 0.992843
425 4 0.683398 0.21431 0.492842
426 4 0.316603 0.785689 0.507157
427 4 0.566603 0.464311 0.00715757
428 4 0.933397 0.0356895 0.992842
429 4 0.683397 0.714311 0.492843
430 4 0.316603 0.285689 0.507157
431 4 0.566603 0.964311 0.00715721
432 4 0.933397 0.535689 0.992843
433 4 0.0883635 0.275375 0.475136
434 4 0.911636 0.724625 0.524864
435 4 0.161636 0.525375 0.0248641
436 4 0.338363 0.974625 0.975135
437 4 0.0883646 0.775374 0.475137
438 4 0.911636 0.224625 0.524864
439 4 0.161636 0.0253744 0.0248639
440 4 0.338364 0.474625 0.975136
441 4 0.588363 0.275375 0.475135
442 4 0.411636 0.724625 0.524864
443 4 0.661637 0.525375 0.0248644
444 4 0.838363 0.974625 0.975135
445 4 0.588364 0.775375 0.475136
446 4 0.411636 0.224625 0.524864
447 4 0.661636 0.0253745 0.0248639
448 4 0.838364 0.474625 0.975136
449 4 0.190872 0.162761 0.728417
450 4 0.809128 0.837239 0.271582
451 4 0.0591278 0.412761 0.771583
452 4 0.440872 0.0872393 0.228416
453 4 0.190873 0.662761 0.728418
454 4 0.809128 0.337239 0.271582
455 4 0.0591275 0.912761 0.771582
456 4 0.440872 0.587239 0.228418
457 4 0.690872 0.162761 0.728416
458 4 0.309128 0.837239 0.271582
459 4 0.559128 0.412761 0.771583
460 4 0.940872 0.0872393 0.228416
461 4 0.690872 0.662761 0.728418
462 4 0.309128 0.337239 0.271582
463 4 0.559128 0.912761 0.771582
464 4 0.940872 0.587239 0.228418
465 4 0.20263 0.189263 0.891799
466 4 0.797369 0.810737 0.108202
467 4 0.0473696 0.439263 0.608201
468 4 0.45263 0.0607368 0.3918
469 4 0.202631 0.689263 0.891798
470 4 0.797369 0.310737 0.108202
471 4 0.0473694 0.939263 0.608202
472 4 0.452631 0.560737 0.391798
473 4 0.70263 0.189263 0.8918
474 4 0.297369 0.810737 0.108202
475 4 0.54737 0.439263 0.608201
476 4 0.95263 0.0607368 0.3918
477 4 0.702631 0.689263 0.891798
478 4 0.297369 0.310737 0.108202
479 4 0.547369 0.939263 0.608202
480 4 0.952631 0.560737 0.391798
481 4 0.429284 0.389551 0.85596
482 4 0.570716 0.610449 0.14404
483 4 0.820716 0.639551 0.64404
484 4 0.679284 0.860449 0.35596
485 4 0.429283 0.889552 0.855959
486 4 0.570716 0.110449 0.14404
487 4 0.820717 0.139552 0.644041
488 4 0.679284 0.360449 0.35596
489 4 0.929284 0.389551 0.85596
490 4 0.0707162 0.610449 0.14404
491 4 0.320716 0.639551 0.64404
492 4 0.179284 0.860449 0.35596
493 4 0.929284 0.889551 0.85596
494 4 0.0707162 0.110449 0.14404
495 4 0.320716 0.139551 0.64404
496 4 0.179284 0.360449 0.35596
497 4 0.40015 0.357072 0.996054
498 4 0.59985 0.642928 0.00394564
499 4 0.84985 0.607072 0.503946
500 4 0.65015 0.892928 0.496054
501 4 0.40015 0.857073 0.996055
502 4 0.59985 0.142928 0.00394561
503 4 0.84985 0.107073 0.503945
504 4 0.65015 0.392928 0.496054
505 4 0.90015 0.357072 0.996054
506 4 0.0998504 0.642928 0.00394565
507 4 0.34985 0.607072 0.503946
508 4 0.15015 0.892928 0.496054
509 4 0.90015 0.857072 0.996054
510 4 0.0998504 0.142928 0.00394561
511 4 0.34985 0.107072 0.503946
512 4 0.15015 0.392928 0.496054
513 4 0.299234 0.450399 0.644307
514 4 0.700766 0.549601 0.355693
515 4 0.950766 0.700399 0.855693
516 4 0.549234 0.799601 0.144307
517 4 0.299234 0.9504 0.644307
518 4 0.700766 0.0496008 0.355693
519 4 0.950766 0.200399 0.855693
520 4 0.549234 0.299601 0.144307
521 4 0.799234 0.450399 0.644307
522 4 0.200766 0.549601 0.355693
523 4 0.450766 0.700399 0.855693
524 4 0.049234 0.799601 0.144307
525 4 0.799234 0.950399 0.644307
526 4 0.200766 0.0496008 0.355693
527 4 0.450766 0.200399 0.855693
528 4 0.0492339 0.299601 0.144307
529 4 0.389626 0.395329 0.615004
530 4 0.610373 0.604671 0.384996
531 4 0.860374 0.645329 0.884996
532 4 0.639626 0.854671 0.115004
533 4 0.389627 0.895329 0.615003
534 4 0.610373 0.104671 0.384996
535 4 0.860373 0.145329 0.884996
536 4 0.639627 0.354671 0.115004
537 4 0.889626 0.395329 0.615004
538 4 0.110373 0.604671 0.384996
539 4 0.360374 0.645329 0.884996
540 4 0.139626 0.854671 0.115004
541 4 0.889627 0.895329 0.615004
542 4 0.110373 0.104671 0.384996
543 4 0.360374 0.145329 0.884996
544 4 0.139627 0.354671 0.115004
545 4 0.195533 0.461959 0.824363
546 4 0.804467 0.538041 0.175637
547 4 0.0544673 0.711959 0.675637
548 4 0.445533 0.788041 0.324363
549 4 0.195533 0.961959 0.824363
550 4 0.804467 0.038041 0.175637
551 4 0.0544673 0.211959 0.675637
552 4 0.445533 0.288041 0.324363
553 4 0.695533 0.461959 0.824363
554 4 0.304467 0.538041 0.175637
555 4 0.554467 0.711959 0.675637
556 4 0.945533 0.788041 0.324363
557 4 0.695533 0.961959 0.824363
558 4 0.304467 0.038041 0.175637
559 4 0.554467 0.211959 0.675637
560 4 0.945533 0.288041 0.324363
561 4 0.197743 0.414314 0.96647
562 4 0.802257 0.585686 0.0335304
563 4 0.0522574 0.664314 0.53353
564 4 0.447743 0.835686 0.46647
565 4 0.197743 0.914314 0.96647
566 4 0.802257 0.0856856 0.0335303
567 4 0.0522574 0.164314 0.53353
568 4 0.447743 0.335686 0.46647
569 4 0.697743 0.414314 0.96647
570 4 0.302257 0.585686 0.0335304
571 4 0.552257 0.664314 0.53353
572 4 0.947743 0.835686 0.46647
573 4 0.697743 0.914314 0.96647
574 4 0.302257 0.0856856 0.0335304
575 4 0.552257 0.164314 0.53353
576 4 0.947743 0.335686 0.46647
ITEM: TIMESTEP
1000
ITEM: NUMBER OF ATOMS
576
ITEM: BOX BOUNDS xy xz yz pp pp pp
-5.0688657784454891e+00 1.8659946627929230e+01 1.8088400973547739e-01
-1.1787372251331973e-01 2.5456402235471234e+01 -4.2938036332517298e+00
-6.7968721371806229e-01 1.3493013896418095e+01 2.2652900125792894e-01
ITEM: ATOMS id type xs ys zs
1 1 0.242711 0.317425 0.853071
2 1 0.755371 0.673379 0.134683
3 1 0.0199053 0.568077 0.620517
4 1 0.498194 0.931071 0.361786
5 1 0.21451 0.811557 0.864758
6 1 0.777057 0.186478 0.159858
7 1 0.00884947 0.0705573 0.644452
8 1 0.477909 0.435261 0.356558
9 1 0.736712 0.316714 0.88673
10 1 0.260267 0.680354 0.131056
11 1 0.529798 0.57872 0.626454
12 1 0.989758 0.929232 0.376756
13 1 0.73163 0.816121 0.875725
14 1 0.270097 0.185293 0.115113
15 1 0.500413 0.0671643 0.627539
16 1 0.982802 0.427581 0.360615
17 1 0.169359 0.320035 0.692192
18 1 0.842212 0.681457 0.291913
19 1 0.0930491 0.548493 0.775214
20 1 0.408844 0.944856 0.201341
21 1 0.143392 0.795873 0.703433
22 1 0.852973 0.202737 0.315211
23 1 0.0824821 0.0468276 0.797736
24 1 0.404463 0.455513 0.200973
25 1 0.656692 0.301995 0.72841
26 1 0.350035 0.687486 0.29551
27 1 0.6041 0.549246 0.781061
28 1 0.907612 0.949571 0.224082
29 1 0.653407 0.805806 0.71767
30 1 0.346209 0.193921 0.281685
31 1 0.572812 0.0476856 0.782431
32 1 0.908011 0.447631 0.204193
33 1 0.275814 0.266175 0.677303
34 1 0.746265 0.747998 0.292017
35 1 0.980877 0.49999 0.777185
36 1 0.52094 0.994415 0.19317
37 1 0.261557 0.752325 0.707465
38 1 0.739469 0.256173 0.317353
39 1 0.977393 0.986064 0.785687
40 1 0.510953 0.509633 0.201104
41 1 0.763534 0.246572 0.731876
42 1 0.245217 0.751366 0.29505
43 1 0.486545 0.504224 0.772188
44 1 0.017965 0.00365026 0.221532
45 1 0.763264 0.748021 0.719391
46 1 0.234211 0.251705 0.275889
47 1 0.461181 0.997971 0.778657
48 1 0.0249405 0.493952 0.211211
49 1 0.308464 0.284288 0.850808
50 1 0.698866 0.717264 0.136893
51 1 0.946402 0.538141 0.61726
52 1 0.567689 0.961319 0.349575
53 1 0.290237 0.785472 0.866035
54 1 0.707356 0.217993 0.161414
55 1 0.945119 0.0333662 0.638487
56 1 0.547859 0.467448 0.356443
57 1 0.801543 0.28113 0.884733
58 1 0.194823 0.718606 0.139333
59 1 0.455953 0.552984 0.620767
60 1 0.0575257 0.96081 0.372939
61 1 0.799849 0.782419 0.874669
62 1 0.205085 0.220568 0.114975
63 1 0.434058 0.0355963 0.624108
64 1 0.0522754 0.454369 0.366595
65 1 0.324461 0.313695 0.692944
66 1 0.694653 0.704866 0.29809
67 1 0.940553 0.551321 0.777824
68 1 0.554431 0.942368 0.187834
69 1 0.295871 0.805693 0.710944
70 1 0.704694 0.204353 0.326206
71 1 0.93318 0.0342296 0.792313
72 1 0.548095 0.459704 0.188507
73 1 0.808786 0.297447 0.729694
74 1 0.199786 0.704427 0.30351
75 1 0.453344 0.557733 0.783544
76 1 0.0524934 0.95314 0.208207
77 1 0.807322 0.79824 0.717938
78 1 0.191156 0.202038 0.278554
79 1 0.421765 0.0504674 0.781121
80 1 0.0607676 0.438333 0.21076
81 1 0.216974 0.368214 0.708311
82 1 0.788815 0.63961 0.29774
83 1 0.0557261 0.600266 0.777794
84 1 0.447097 0.894319 0.198515
85 1 0.178432 0.850019 0.704276
86 1 0.813305 0.150849 0.321726
87 1 0.0366866 0.0971997 0.803146
88 1 0.445984 0.406 0.195806
89 1 0.701528 0.350827 0.728437
90 1 0.301042 0.645096 0.302257
91 1 0.567377 0.602481 0.79121
92 1 0.949059 0.89846 0.218868
93 1 0.69827 0.853453 0.718943
94 1 0.302143 0.143718 0.276705
95 1 0.529279 0.100115 0.783051
96 1 0.942007 0.394213 0.199557
97 2 0.233887 0.318844 0.92323
98 2 0.751763 0.661659 0.062115
99 2 0.0165458 0.574337 0.547382
100 2 0.505173 0.925087 0.438061
101 2 0.21119 0.812886 0.936244
102 2 0.777124 0.179201 0.0868203
103 2 0.0127745 0.0824956 0.573639
104 2 0.479317 0.421748 0.429083
105 2 0.738796 0.323808 0.958308
106 2 0.252195 0.668207 0.0580719
107 2 0.538061 0.588239 0.559761
108 2 0.98536 0.918538 0.446018
109 2 0.729086 0.822694 0.946167
110 2 0.275286 0.1783 0.0430036
111 2 0.499494 0.0737854 0.553341
112 2 0.976562 0.419436 0.430663
113 2 0.112088 0.330509 0.65154
114 2 0.898262 0.669944 0.327007
115 2 0.150781 0.551484 0.815709
116 2 0.348342 0.937682 0.173234
117 2 0.0848787 0.79663 0.664751
118 2 0.910207 0.199002 0.349653
119 2 0.138726 0.0527088 0.847887
120 2 0.348726 0.449592 0.160905
121 2 0.599016 0.308519 0.693715
122 2 0.406241 0.674153 0.327507
123 2 0.660124 0.551804 0.824422
124 2 0.85204 0.946214 0.187996
125 2 0.59684 0.814018 0.677828
126 2 0.404405 0.18833 0.32659
127 2 0.629239 0.0541735 0.824972
128 2 0.849993 0.451579 0.160075
129 2 0.293817 0.237266 0.630748
130 2 0.737512 0.781162 0.33336
131 2 0.963346 0.46858 0.820532
132 2 0.530467 0.0224117 0.139038
133 2 0.282268 0.7237 0.667728
134 2 0.723504 0.285854 0.357664
135 2 0.956869 0.949348 0.815177
136 2 0.53385 0.540089 0.166612
137 2 0.78336 0.214999 0.696861
138 2 0.240227 0.78674 0.33241
139 2 0.470558 0.470712 0.81378
140 2 0.0295635 0.0381714 0.179657
141 2 0.782012 0.71664 0.682392
142 2 0.224548 0.280113 0.32616
143 2 0.443358 0.965158 0.813213
144 2 0.0483497 0.523177 0.174863
145 2 0.333438 0.273046 0.925041
146 2 0.66564 0.724987 0.0632381
147 2 0.91659 0.530389 0.542247
148 2 0.605089 0.968173 0.419061
149 2 0.318644 0.7778 0.943363
150 2 0.674832 0.224122 0.0910092
151 2 0.91595 0.02921 0.560743
152 2 0.578745 0.475128 0.429432
153 2 0.830787 0.271362 0.959368
154 2 0.156541 0.729229 0.0685645
155 2 0.421856 0.54822 0.54845
156 2 0.0929514 0.967572 0.443992
157 2 0.829136 0.773593 0.950092
158 2 0.177043 0.230281 0.042093
159 2 0.404136 0.0295341 0.547568
160 2 0.0816668 0.461061 0.440231
161 2 0.362638 0.31521 0.651191
162 2 0.658516 0.715605 0.342286
163 2 0.895793 0.544737 0.812221
164 2 0.59519 0.941734 0.148412
165 2 0.330191 0.807257 0.665306
166 2 0.6635 0.208221 0.364275
167 2 0.889532 0.0253876 0.826475
168 2 0.589779 0.46698 0.152791
169 2 0.84679 0.290877 0.688943
170 2 0.160078 0.716753 0.33962
171 2 0.409243 0.555263 0.820027
172 2 0.090767 0.955166 0.165042
173 2 0.849938 0.795547 0.681399
174 2 0.153147 0.203663 0.321067
175 2 0.380481 0.0470799 0.819418
176 2 0.0957521 0.435409 0.162718
177 2 0.188216 0.406533 0.692684
178 2 0.816138 0.605363 0.337941
179 2 0.0928431 0.63078 0.810311
180 2 0.412205 0.861006 0.170931
181 2 0.140437 0.880656 0.672111
182 2 0.84767 0.119338 0.359944
183 2 0.0709272 0.128331 0.844984
184 2 0.412428 0.372876 0.163699
185 2 0.668143 0.384481 0.693807
186 2 0.331759 0.609189 0.338824
187 2 0.603523 0.632629 0.83543
188 2 0.911488 0.869074 0.182231
189 2 0.665163 0.88892 0.681317
190 2 0.33544 0.108414 0.30751
191 2 0.561656 0.132682 0.820629
192 2 0.902643 0.366054 0.167384
193 3 0.168361 0.295575 0.785341
194 3 0.834942 0.690052 0.185064
195 3 0.0882041 0.535746 0.670531
196 3 0.428105 0.960903 0.316553
197 3 0.145858 0.781274 0.804577
198 3 0.845528 0.215636 0.207236
199 3 0.0836656 0.0427282 0.694861
200 3 0.406037 0.464531 0.306815
201 3 0.658701 0.289886 0.827685
202 3 0.334031 0.702459 0.172033
203 3 0.599202 0.543913 0.676538
204 3 0.917683 0.958329 0.331241
205 3 0.660522 0.790891 0.825425
206 3 0.34422 0.208351 0.179472
207 3 0.574702 0.0393682 0.6814
208 3 0.908357 0.457664 0.304112
209 3 0.0996047 0.308137 0.815553
210 3 0.898368 0.674773 0.148393
211 3 0.159614 0.551163 0.649167
212 3 0.364141 0.948459 0.354857
213 3 0.0744109 0.797457 0.823461
214 3 0.912393 0.194411 0.180755
215 3 0.153341 0.0683412 0.688237
216 3 0.334789 0.444618 0.320432
217 3 0.589519 0.310381 0.848622
218 3 0.390707 0.681068 0.128142
219 3 0.669812 0.5615 0.657769
220 3 0.851516 0.936879 0.358301
221 3 0.590623 0.803996 0.851796
222 3 0.408515 0.193219 0.143072
223 3 0.644954 0.0620346 0.66689
224 3 0.839293 0.435415 0.322823
225 3 0.197153 0.276395 0.633488
226 3 0.82609 0.733884 0.334526
227 3 0.0640716 0.502002 0.822681
228 3 0.432212 0.9901 0.153862
229 3 0.181056 0.751692 0.658402
230 3 0.824479 0.249473 0.357596
231 3 0.0574273 0.995139 0.837329
232 3 0.42785 0.506603 0.160269
233 3 0.682904 0.252273 0.683558
234 3 0.331343 0.737918 0.331852
235 3 0.56962 0.503001 0.820888
236 3 0.933273 0.996908 0.179375
237 3 0.679713 0.755357 0.677128
238 3 0.313176 0.24151 0.322018
239 3 0.547128 0.00178141 0.827945
240 3 0.944664 0.494485 0.165201
241 3 0.168697 0.249882 0.538009
242 3 0.849575 0.730687 0.443649
243 3 0.0800908 0.5097 0.928583
244 3 0.408252 0.983663 0.0466979
245 3 0.163111 0.760359 0.551624
246 3 0.845158 0.243378 0.465874
247 3 0.0720225 0.998378 0.94518
248 3 0.403938 0.505394 0.0517648
249 3 0.669606 0.261385 0.576892
250 3 0.358771 0.74331 0.440611
251 3 0.587579 0.506469 0.928987
252 3 0.914624 0.991194 0.0725303
253 3 0.664495 0.760147 0.569997
254 3 0.338682 0.243592 0.431974
255 3 0.564479 0.00889077 0.934261
256 3 0.920148 0.494866 0.0543755
257 3 0.295048 0.238779 0.785843
258 3 0.724654 0.768312 0.1824
259 3 0.955863 0.484535 0.67122
260 3 0.553176 0.0140127 0.294359
261 3 0.286099 0.733641 0.819267
262 3 0.717306 0.271526 0.209915
263 3 0.959493 0.976714 0.677118
264 3 0.538643 0.521961 0.310451
265 3 0.786448 0.22837 0.83567
266 3 0.218122 0.770225 0.193001
267 3 0.460886 0.494187 0.666369
268 3 0.0455517 0.0164117 0.32725
269 3 0.785635 0.729424 0.823364
270 3 0.216497 0.270687 0.165761
271 3 0.442989 0.982383 0.673327
272 3 0.0448117 0.507666 0.318043
273 3 0.240312 0.201322 0.807255
274 3 0.785088 0.793326 0.147294
275 3 0.00866124 0.446025 0.644025
276 3 0.499342 0.0497689 0.325226
277 3 0.238833 0.689051 0.839689
278 3 0.768044 0.310804 0.181602
279 3 0.018769 0.946899 0.647489
280 3 0.482483 0.552558 0.34492
281 3 0.731238 0.192466 0.865187
282 3 0.272559 0.804294 0.158294
283 3 0.514357 0.45887 0.633738
284 3 0.000881744 0.0548067 0.369684
285 3 0.734488 0.688115 0.848898
286 3 0.274969 0.306368 0.146429
287 3 0.498796 0.946193 0.647365
288 3 0.987747 0.546036 0.338186
289 3 0.363596 0.312066 0.798307
290 3 0.648718 0.69327 0.189716
291 3 0.902672 0.570628 0.662633
292 3 0.610461 0.927516 0.306016
293 3 0.334975 0.821408 0.821012
294 3 0.662248 0.188935 0.212664
295 3 0.889261 0.0539056 0.691421
296 3 0.594207 0.438354 0.307362
297 3 0.852731 0.307815 0.828898
298 3 0.147618 0.693128 0.18998
299 3 0.413216 0.581007 0.676428
300 3 0.100261 0.93228 0.32072
301 3 0.8498 0.809959 0.825596
302 3 0.152855 0.189823 0.181392
303 3 0.382619 0.0668997 0.68039
304 3 0.102551 0.421951 0.306017
305 3 0.40351 0.359562 0.852414
306 3 0.58951 0.660775 0.121142
307 3 0.839111 0.596509 0.587923
308 3 0.673124 0.905171 0.384213
309 3 0.398025 0.84169 0.898954
310 3 0.61545 0.150329 0.144785
311 3 0.830539 0.0852752 0.62043
312 3 0.654173 0.411087 0.381732
313 3 0.889141 0.358428 0.876708
314 3 0.100285 0.654759 0.122726
315 3 0.348271 0.608323 0.604005
316 3 0.170189 0.907924 0.38535
317 3 0.907767 0.839563 0.899913
318 3 0.103368 0.14773 0.126129
319 3 0.338624 0.106787 0.609495
320 3 0.161918 0.39296 0.379914
321 3 0.275288 0.365613 0.660889
322 3 0.734585 0.655442 0.348786
323 3 0.990892 0.592738 0.825944
324 3 0.505002 0.898313 0.146108