LAMMPS data file via write_data, version 15 Apr 2020, timestep = 80000

576 atoms
4 atom types

-8.8377633174201620e-01 1.8587776804741907e+01 xlo xhi
-9.3401160611388434e-01 2.6046011117813158e+01 ylo yhi
-2.7747002700994639e-01 1.3090796709709821e+01 zlo zhi
2.0011174399255256e+00 -1.5939725047217637e+00 -2.4098978370269075e-01 xy xz yz

Masses

1 12.0107
2 1.00794
3 14.0067
4 15.9994

Atoms # full

17 1 1 -2.2096331350821924e-01 2.1332494955898111e+00 8.7999230729319322e+00 9.5166639801476443e+00 0 0 0
19 1 1 -2.2814165604970085e-01 1.8361292677652422e+01 1.3864130193973832e+01 1.0795689725540285e+01 -1 0 0
21 1 1 -2.2472595511307319e-01 3.8563045612641540e+00 2.1599267975067871e+01 9.4338818676535610e+00 0 0 0
23 1 1 -2.3346946947516223e-01 -1.2419313483883474e+00 6.2882407156474596e-01 1.1747089179043371e+01 0 0 0
58 1 1 -2.2361394854394817e-01 2.4994651820892582e+00 1.6121642927602608e+01 2.7327400732524656e+00 0 0 0
60 1 1 -2.3286862923482118e-01 1.3573958454035506e+00 2.3518995710885957e+01 3.5785398603981808e+00 0 0 0
62 1 1 -2.2700636194807272e-01 3.8882379137407299e+00 3.8300923125780528e+00 1.0323975049722294e+00 0 0 0
64 1 1 -2.2335747530113501e-01 1.0543231364464718e+00 1.0107852587684782e+01 3.8872663617027605e+00 0 0 0
78 1 1 -2.3134872573084742e-01 4.0174100187675759e+00 2.5955698614540408e+00 3.1147493180210408e+00 0 0 0
80 1 1 -2.2532013505972145e-01 5.1301810734815279e-01 8.7610441056414778e+00 1.9902752710438132e+00 0 0 0
113 1 2 2.8588242243369993e-01 1.1732465607338600e+00 9.0332648976043366e+00 9.0963942927132848e+00 0 0 0
115 1 2 2.6881386311037447e-01 -7.1542841545300462e-01 1.3826450708107252e+01 1.1836083160131551e+01 0 0 0
117 1 2 2.7815370942715711e-01 2.7980885661993087e+00 2.1432952360527434e+01 9.7278135152826515e+00 0 0 0
119 1 2 2.5372838731924724e-01 -6.6049472331998871e-01 7.7375923397665658e-01 1.2653326099475379e+01 0 0 0
154 1 2 2.7067041802566771e-01 1.5070696864271254e+00 1.6123991567618685e+01 2.2126485197298047e+00 0 0 0
156 1 2 2.7965111634657153e-01 2.2662413989500401e+00 2.3917228566736920e+01 3.9998202949059847e+00 0 0 0
158 1 2 2.6889681492630912e-01 3.3717937921357404e+00 4.3586814098494200e+00 2.5662638523137415e-01 0 0 0
160 1 2 2.6483353733316500e-01 1.8739719470073712e+00 1.0610277573641504e+01 4.4494313641213106e+00 0 0 0
170 1 2 2.6154388123575845e-01 4.4442447081220937e+00 1.3532405986137698e+01 3.2388962628901732e+00 0 0 0
172 1 2 2.8440738193045578e-01 2.0211160992571340e+01 2.2670665362975374e+01 4.9296495182727074e-01 -1 0 0
174 1 2 2.6870183290904298e-01 3.3251892648643784e+00 2.3851553985605056e+00 3.8897444270896964e+00 0 0 0
176 1 2 2.8665970751861075e-01 1.0344506698358256e+00 8.4242071135484906e+00 1.0877347849345014e+00 0 0 0
181 1 2 2.7943993830553121e-01 3.6393247937923601e+00 2.3068696162684297e+01 1.1018533735959650e+01 0 0 0
193 1 3 1.7468634576465958e-01 1.9064553247349192e+00 7.6993981029539125e+00 1.0866988369341772e+01 0 0 0
195 1 3 1.6070933126588235e-01 2.2499358256584756e-01 1.4404572348282800e+01 1.0068746307738422e+01 0 0 0
197 1 3 1.6161899297355925e-01 4.6481408610180113e+00 2.0259742040094928e+01 9.9305230414865058e+00 0 0 0
199 1 3 1.5395419192464918e-01 -1.3187055557598582e-01 8.5561738360400463e-01 1.0589500257851579e+01 0 0 0
209 1 3 3.4750248701217284e-01 5.4896142698199313e-01 7.7983394348820205e+00 1.1547770236750672e+01 0 0 0
211 1 3 3.4632136321222823e-01 1.2922730312304203e+00 1.5051323843133831e+01 1.0935689348806534e+01 0 0 0
213 1 3 3.4650872068343336e-01 3.8358754198903187e+00 1.9413562135244881e+01 1.0940319776867330e+01 0 0 0
215 1 3 3.3064596795210960e-01 1.0560809667742905e+00 1.7343720758380150e+00 1.1034320596388099e+01 0 0 0
229 1 3 1.8275851109544269e-01 4.0100279424670626e+00 2.1739274425539275e+01 7.9471655379565709e+00 0 0 0
231 1 3 1.6554550282835589e-01 -1.6645462711065271e+00 -7.9929375351295784e-01 1.1707473987913733e+01 0 0 0
241 1 3 3.3092068429225779e-01 2.9570863336978359e+00 8.6860419534592559e+00 7.1162247503992617e+00 0 0 0
245 1 3 3.2535497300886884e-01 3.0642574945025944e+00 2.2833052875451852e+01 7.4158457196831931e+00 0 0 0
266 1 3 1.7329460627204959e-01 2.2282496030074315e+00 1.5558494963752580e+01 4.2154953440621119e+00 0 0 0
268 1 3 1.7301511429976874e-01 2.0042757755968374e+01 2.4673240269132542e+01 2.9696341428528168e+00 -1 -1 0
275 1 3 3.0728752550644156e-01 4.4894190627057484e-01 1.2329681974205469e+01 8.2867004280295191e+00 0 0 0
279 1 3 3.2778158274640856e-01 1.8717623656179283e+00 2.5579203595370426e+01 9.2595915418575672e+00 0 0 0
298 1 3 1.6967800469396296e-01 3.2737521345908802e+00 1.4959535461685315e+01 2.1289315842983685e+00 0 0 0
300 1 3 1.8216991018255418e-01 1.7510720101988801e+00 2.2686639060241252e+01 2.4014009303759076e+00 0 0 0
302 1 3 1.6169804915745453e-01 3.1186036853063106e+00 2.7374788512856840e+00 1.6958968034726070e+00 0 0 0
304 1 3 1.6450027659075034e-01 1.5424724629066366e+00 8.8660641977349783e+00 3.1926290543872935e+00 0 0 0
314 1 3 3.3061208954360088e-01 2.3801897977455386e+00 1.3799055914320908e+01 1.7585802237749366e+00 0 0 0
316 1 3 3.5631658377892311e-01 2.8294172403344753e+00 2.3427846068279830e+01 1.5533136554130724e+00 0 0 0
318 1 3 3.4011433569961746e-01 1.6788354479458973e+00 3.0704404850375813e+00 2.0301775351993880e+00 0 0 0
320 1 3 3.3899001853970606e-01 3.0422058354697223e+00 8.9352804450477930e+00 2.7927644810054169e+00 0 0 0
350 1 3 3.2889404769504199e-01 4.1683455194092343e+00 1.6424582068693194e-01 2.9290803665851466e+00 0 0 0
352 1 3 3.3758772773637591e-01 3.3887028100040073e-02 6.3206476168064079e+00 2.3825472766775126e+00 0 0 0
375 1 3 3.4422158858781615e-01 -1.3564184406552005e+00 3.8904670420826228e+00 1.0482509003212694e+01 0 0 0
385 1 4 -2.5229566142098753e-01 -3.8792135310563447e-01 8.3718447229437825e+00 1.0877788001968444e+01 0 0 0
387 1 4 -2.6500354769942730e-01 1.4411791214535778e+00 1.4832752146714164e+01 1.2192129076846854e+01 0 0 0
389 1 4 -2.2622501798419536e-01 2.5551501378973938e+00 1.9388012010672814e+01 1.0754803456917987e+01 0 0 0
391 1 4 -3.3350203079822532e-01 1.3763424646800200e+00 1.8118650658679103e+00 1.2291647670200412e+01 0 0 0
401 1 4 -2.7873175761149399e-01 3.4502050148229202e-01 7.2445619561166144e+00 1.2679877756629814e+01 0 0 0
403 1 4 -2.1981206227802025e-01 2.1026643509614438e+00 1.5897114289232025e+01 1.0403460037474272e+01 0 0 0
405 1 4 -2.3634495144906029e-01 4.3771444224804466e+00 1.8789137133426493e+01 1.1899115405093525e+01 0 0 0
407 1 4 -2.5233431495202552e-01 1.6641951582646191e+00 2.4524937331663392e+00 1.0155753341907502e+01 0 0 0
421 1 4 -3.0841900899157915e-01 3.2090163645970353e+00 2.3378336403583990e+01 6.2625648962681488e+00 0 0 0
433 1 4 -3.3137050574794452e-01 1.9571765546968634e+00 9.4035485662346918e+00 6.7484287323936121e+00 0 0 0
435 1 4 -2.8744596453315102e-01 1.7264417146929517e+01 1.1776625905434404e+01 1.2585154391992578e+01 -1 0 -1
437 1 4 -2.8081159977482184e-01 1.9963477272719357e+00 2.3075121330932813e+01 8.1082999826055904e+00 0 0 0
449 1 4 -2.5985327307028649e-01 2.6311119614477576e+00 5.5215110382460972e+00 9.1242036503435067e+00 0 0 0
451 1 4 -3.4095451592904719e-01 4.6763482836375192e-01 1.1290895403759459e+01 9.0719000083119923e+00 0 0 0
455 1 4 -3.0827431614438849e-01 2.1912183539691266e+00 2.4704332546312997e+01 1.0132516540343161e+01 0 0 0
467 1 4 -2.9612940370079693e-01 1.5202821388080048e+00 1.2929082648039941e+01 7.9468122280666345e+00 0 0 0
471 1 4 -2.7611494888029581e-01 7.1035889440937350e-01 -9.9825005933481337e-01 8.3878953634409541e+00 0 1 0
490 1 4 -2.7811813174065381e-01 2.8081457801649199e+00 1.2574856944066742e+01 1.8305867777790836e+00 0 0 0
492 1 4 -2.7690117145870663e-01 2.6388047003813337e+00 2.3513558981511590e+01 3.0885209389619328e-01 0 0 0
494 1 4 -2.5926693710447907e-01 1.2383335614604563e+00 2.9362692768491336e+00 3.2226226683615997e+00 0 0 0
506 1 4 -2.7936736054970812e-01 1.2065882403431725e+00 1.4008996338229974e+01 1.3190885104191132e+00 0 0 0
508 1 4 -2.2471464332652236e-01 3.8080652140407016e+00 2.4009491287669093e+01 2.1551201024422868e+00 0 0 0
510 1 4 -2.5711870652095214e-01 8.8212059464377979e-01 3.3651007408387370e+00 1.0625154704315209e+00 0 0 0
512 1 4 -2.8154253145899383e-01 3.7949035755548404e+00 9.8816875634219041e+00 3.2311281887526908e+00 0 0 0
528 1 4 -2.6442286907240919e-01 -6.0403736185598444e-01 5.4006793157691142e+00 2.9959493836863009e+00 0 0 0
540 1 4 -2.5015011384339969e-01 1.3966482418941504e+00 2.0123504977192916e+01 6.3069426100183246e-01 0 0 0
542 1 4 -2.4194689456110952e-01 3.1517968620532755e+00 -2.9383445229722138e-02 3.6645301219350306e+00 0 0 0
544 1 4 -2.7574967321189930e-01 1.1477580433539745e+00 6.0842936668928767e+00 1.7681332256102036e+00 0 0 0
545 1 4 -2.8277187143236299e-01 1.3487536090582859e+00 1.1591964981823654e+01 1.1853850010101116e+01 0 0 0
549 1 4 -2.3632914006934061e-01 5.4853246540967513e+00 2.2770219598370264e+01 -2.4492558597139405e-01 0 0 1
551 1 4 -2.4168904070854044e-01 -1.1732633055850274e+00 4.3410343540091549e+00 1.1664673515061491e+01 0 0 0
567 1 4 -2.3336397548799226e-01 -1.0466202956354154e+00 4.6266961339514365e+00 9.4769138223095979e+00 0 0 0
112 1 2 2.5422537452582128e-01 6.1819203931702926e-02 1.0117677522100578e+01 5.8466068509938012e+00 1 0 0
16 1 1 -2.2557907952097914e-01 -1.3259310587830009e-01 9.8189111443686432e+00 4.8069192724117205e+00 1 0 0
368 1 3 1.5301322167128831e-01 -4.9783581243423125e-01 8.3158526624385392e+00 4.8167721339555758e+00 1 0 0
7 1 1 -2.3313855019956500e-01 -9.8785354298813322e-01 1.5397300677785202e+00 9.5063803664089299e+00 0 0 0
12 1 1 -2.3107609690164069e-01 5.5594220356230428e-01 2.2691044249011945e+01 4.6756346513103741e+00 1 0 0
103 1 2 2.5705990598066897e-01 -1.9264424953806092e-01 2.0614675586437330e+00 8.9325597922067814e+00 0 0 0
108 1 2 2.7231534240159622e-01 1.1119784267849568e+00 2.2676781479353622e+01 5.6448729887338569e+00 1 0 0
476 1 4 -2.8315921186016740e-01 1.9744013120664441e+01 2.5662837910943527e+01 5.1396422233755894e+00 0 -1 0
576 1 4 -2.6245577158652683e-01 -5.0607448177412007e-01 8.0839355696898423e+00 7.1990328044176293e+00 1 0 0
46 1 1 -2.3172304894700249e-01 4.6803039337813450e+00 3.9537260921503332e+00 3.3299339574718489e+00 0 0 0
74 1 1 -2.3362502520186032e-01 4.2955479116147632e+00 1.4623821012012838e+01 3.2836580012093148e+00 0 0 0
138 1 2 2.6015499019475180e-01 3.6427110786673520e+00 1.4322454932000293e+01 5.3907929049814785e+00 0 0 0
142 1 2 2.5720487595764796e-01 4.4896207579137757e+00 4.4193164519703290e+00 4.2864546922137254e+00 0 0 0
225 1 3 1.8351508315962384e-01 2.9553766725067199e+00 8.0548287700948098e+00 8.5318742885489627e+00 0 0 0
270 1 3 1.6420908396331699e-01 4.1363837398873091e+00 4.8595997342312955e+00 2.2677620554736060e+00 0 0 0
465 1 4 -2.9778468327056767e-01 3.1334304713574248e+00 4.9141953333211639e+00 1.1185732493362121e+01 0 0 0
496 1 4 -2.8476854083966663e-01 3.5757396092113405e+00 8.0171266614931422e+00 2.0748115366210316e+00 0 0 0
538 1 4 -2.7114702627841608e-01 5.9844995309781375e+00 1.3498921611613193e+01 1.3499892445293571e+00 0 0 0
10 1 1 -2.2522662750177913e-01 3.2151424834334312e+00 1.7455382188170571e+01 2.6132294454868101e+00 0 0 0
42 1 1 -2.2703933664035084e-01 3.6300832585288223e+00 1.5138765131344087e+01 4.6031057496734915e+00 0 0 0
85 1 1 -2.3001595433811073e-01 4.4028593822391739e+00 2.2766434783325426e+01 1.0279349198327235e+01 0 0 0
99 1 2 2.6545146764741423e-01 3.8759238698392062e-01 1.5986408346588533e+01 8.6022883883376160e+00 0 0 0
106 1 2 2.6622823384250133e-01 2.4944845212982756e+00 1.8032475993433824e+01 1.9499618465300705e+00 0 0 0
273 1 3 3.5288847139133817e-01 3.4344967382496177e+00 5.5786561132801706e+00 1.0133453285943652e+01 0 0 0
282 1 3 3.2655175891635013e-01 1.5883068141624346e+00 1.6639864647569738e+01 5.0982766704969711e+00 0 0 0
334 1 3 1.6166665533172825e-01 4.9627754038899612e+00 1.4643353693457293e+00 3.1075729599438437e+00 0 0 0
373 1 3 3.4947060906262106e-01 4.8586562592796412e+00 2.1814184078089607e+01 1.2662463232841205e+01 0 0 0
453 1 4 -3.0741558624491871e-01 4.8947913700814611e+00 1.9456619457114847e+01 6.8951382161482480e+00 0 0 0
526 1 4 -2.5316618169918803e-01 4.6126888045744856e+00 -8.4172485949768538e-01 2.2063598665337585e+00 0 0 0
458 1 4 -2.8571393297370257e-01 2.0899800802368254e+00 1.6805171891039304e+01 6.2621934789636455e+00 0 0 0
474 1 4 -2.7435784733231816e-01 7.3684190690366358e-01 1.7428224008106106e+01 4.5737132864193191e+00 0 0 0
384 1 3 3.3266046895047263e-01 1.8237714387626173e+01 8.0636819948517804e+00 6.1450442672944909e+00 0 0 0
572 1 4 -2.5832544967653931e-01 9.8905318911537909e-01 2.0423282595376730e+01 6.4755535705826555e+00 1 0 0
547 1 4 -2.7773004877804325e-01 1.8396068733360600e+01 1.7048034464983616e+01 1.1884394564779999e+01 -1 0 0
417 1 4 -2.8411407735796501e-01 3.7974198856891679e+00 8.1695954135089313e+00 6.2999837036824919e+00 0 0 0
1 1 1 -2.3602696895763628e-01 2.9740286327029670e+00 8.1504580013535808e+00 1.1757027759346009e+01 0 0 0
5 1 1 -2.3664701649079520e-01 5.8808108235399716e+00 2.0885824014745630e+01 1.0485998172216014e+01 0 0 0
14 1 1 -2.2654383465063258e-01 5.1212688932215187e+00 3.3003078631523834e+00 2.8048823149102442e-01 0 0 0
33 1 1 -2.2141903999731505e-01 4.4087735531948571e+00 7.7715678799432464e+00 9.0882694903003198e+00 0 0 0
37 1 1 -2.2666636540728788e-01 5.5125888199629944e+00 2.2062714758360961e+01 7.6673776340695659e+00 0 0 0
81 1 1 -2.3049411921064772e-01 2.8340378391779284e+00 1.0000171689031035e+01 1.0031068799860186e+01 0 0 0
97 1 2 2.7340711729004136e-01 2.7224341768981257e+00 7.9726844319982675e+00 1.2787950153530058e+01 0 0 0
101 1 2 2.8200583458128420e-01 6.2821248449284983e+00 2.0177868825416741e+01 1.1224531611658694e+01 0 0 0
110 1 2 2.9463499837234486e-01 3.3219177541904661e+00 3.2027603215407252e+00 1.2559035568230140e+01 0 0 -1
129 1 2 2.7728475889588167e-01 4.9713311324857141e+00 7.4036164139795648e+00 8.1660030634096223e+00 0 0 0
133 1 2 2.6955480809159488e-01 5.5159540676646319e+00 2.2287607393688525e+01 6.5934794544846023e+00 0 0 0
177 1 2 2.8352626058462049e-01 2.2454714976786536e+00 1.0902033747210927e+01 9.8447593890285781e+00 0 0 0
277 1 3 3.2803864747481160e-01 5.9314797253901714e+00 1.9532191683182290e+01 7.6115718265965908e+00 0 0 0
286 1 3 3.4014821765919534e-01 5.1360724489382319e+00 5.9665201186804158e+00 1.8948147856408264e+00 0 0 0
321 1 3 1.8271838814530156e-01 4.2954993332358757e+00 1.0200055010982130e+01 9.4240581128170255e+00 0 0 0
325 1 3 1.9056773468583704e-01 4.9329203522863567e+00 2.3877061285328452e+01 9.4368581805358644e+00 0 0 0
330 1 3 1.7167536960668373e-01 5.6454443388950803e+00 1.5208785695055084e+01 3.0301566693665181e+00 0 0 0
337 1 3 3.4942679098483587e-01 4.9635283754850024e+00 1.1528930224941034e+01 9.8824768955686757e+00 0 0 0
346 1 3 3.4942352852208497e-01 6.2639819152285696e+00 1.4702680384862212e+01 1.7177416806616108e+00 0 0 0
353 1 3 1.6092950143846568e-01 2.9152550564528710e+00 9.7690222281616279e+00 1.1530087935516818e+01 0 0 0
357 1 3 1.6915282409056970e-01 5.4480274597668270e+00 2.2136935224013158e+01 1.1263126374095364e+01 0 0 0
362 1 3 1.7765193133576213e-01 4.5779703002168493e+00 1.7318606845528482e+01 1.9012146580366447e+00 0 0 0
366 1 3 1.7762157564803721e-01 5.2512367623642611e+00 1.7537351945329247e+00 5.5767506573639125e-01 0 0 0
369 1 3 3.3695517726271879e-01 1.7522935423433537e+00 1.0457958331531405e+01 1.2294167437262985e+01 0 0 0
382 1 3 3.5409354627355860e-01 4.4261778325098948e+00 8.0154194620474395e-01 1.2794901443907921e+01 0 0 -1
469 1 4 -3.0743262288737233e-01 6.5023316693690481e+00 1.8508360046266461e+01 8.1306714768314983e+00 0 0 0
491 1 4 -2.4350931977573684e-01 5.5275172898304836e+00 1.5586324770112160e+01 1.1239709416308454e+01 0 0 0
513 1 4 -2.4388587875683226e-01 4.2646740834887904e+00 1.2608124556988932e+01 9.8513280107215984e+00 0 0 0
517 1 4 -2.6253687475828513e-01 4.8895477140592352e+00 2.5364386193204833e+01 1.1262555458423172e+01 0 0 0
522 1 4 -2.4075238773942786e-01 7.0487090150113172e+00 1.5458122428623909e+01 1.0464883322195975e+00 0 0 0
561 1 4 -2.8687215980722947e-01 2.8907591399875114e+00 1.0285199204829164e+01 5.1550079123791781e-02 0 0 1
565 1 4 -2.3359224796221034e-01 6.9705794478352727e+00 2.1183086032422374e+01 8.1244653200239880e-02 0 0 1
4 1 1 -2.3252005082922103e-01 1.0127503225495062e+01 2.3782529652065779e+01 4.6721226760112771e+00 0 0 0
8 1 1 -2.1587160911680889e-01 8.4028649495492314e+00 1.0494488458499980e+01 5.7239755950329023e+00 0 0 0
11 1 1 -2.2441492398372367e-01 8.8691280447852527e+00 1.5317549533758836e+01 7.7306440426413898e+00 0 0 0
15 1 1 -2.2768722798671853e-01 9.3519133036330402e+00 1.6055059600702957e+00 7.2079029415563314e+00 0 0 0
20 1 1 -2.2807939456031809e-01 9.4066682335949068e+00 2.3401975760377276e+01 2.3569208653900073e+00 0 0 0
24 1 1 -2.2746095385924761e-01 7.2886557241001091e+00 1.0289045189067121e+01 3.5945958383540435e+00 0 0 0
25 1 1 -2.2403502943436596e-01 1.0998161460085855e+01 8.8111726709313096e+00 1.0235520798195296e+01 0 0 0
26 1 1 -2.3071634855475995e-01 4.8658476177156817e+00 1.7256719169944944e+01 4.2869293516427165e+00 0 0 0
27 1 1 -2.2051264971244505e-01 1.0642668979532907e+01 1.5383837657643280e+01 9.3618560130630186e+00 0 0 0
29 1 1 -2.2987256403457107e-01 1.2379928375716858e+01 2.1885770361227888e+01 9.9571067725686540e+00 0 0 0
30 1 1 -2.2973596880127400e-01 6.6791676698351230e+00 3.0718710059170871e+00 2.1142089328441016e+00 0 0 0
31 1 1 -2.2955001233560030e-01 1.0040020892419989e+01 1.8359955551287053e+00 9.5084791898870087e+00 0 0 0
36 1 1 -2.1738816605449124e-01 1.1714892928025055e+01 2.4434031120867452e+01 1.9960638152322381e+00 0 0 0
40 1 1 -2.3063240195814663e-01 9.5057314596989766e+00 1.1168862897806337e+01 2.8385175620332777e+00 0 0 0
43 1 1 -2.3376256562746550e-01 8.7669275223507839e+00 1.4591987424535933e+01 1.0749057197748428e+01 0 0 0
47 1 1 -2.2834455565272233e-01 7.8411338148659615e+00 6.7267339793837322e-01 9.7820999080984592e+00 0 0 0
49 1 1 -2.3025236093122167e-01 4.3863503585822361e+00 7.5915820480062397e+00 1.1453587099227530e+01 0 0 0
50 1 1 -2.2990820952748872e-01 1.4284204141432753e+01 1.7580243491154064e+01 1.0020340861548740e+00 0 0 0
52 1 1 -2.2174387246794675e-01 1.1499409787120044e+01 2.4390242838896789e+01 4.5313661191725068e+00 0 0 0
53 1 1 -2.2596029146105276e-01 6.9294894322694383e+00 2.1199158253955339e+01 9.3388384561812927e+00 0 0 0
54 1 1 -2.2600091993386046e-01 1.3467531285942654e+01 4.3119516165666445e+00 7.6880171777971951e-01 0 0 0
56 1 1 -2.0734721561300953e-01 9.7727769196925642e+00 1.0986418312025652e+01 5.2954287953842387e+00 0 0 0
59 1 1 -2.2492351784590386e-01 7.6519448053612500e+00 1.4865852373909236e+01 8.6060545910018647e+00 0 0 0
63 1 1 -2.3241068340866233e-01 7.9990296579783102e+00 9.0502896316396653e-01 7.3957425094148830e+00 0 0 0
65 1 1 -2.2770488539049322e-01 5.1106970017030049e+00 8.9858777285981297e+00 9.6338235875125875e+00 0 0 0
66 1 1 -2.2916583489513404e-01 1.3031565508971433e+01 1.7076514926071500e+01 3.0411477496331050e+00 0 0 0
68 1 1 -2.2119145984179300e-01 1.2332249313758467e+01 2.3196779056738954e+01 2.5628143487575397e+00 0 0 0
69 1 1 -2.3331004050772713e-01 6.0246243528120198e+00 2.3241787258648269e+01 8.5239223745421278e+00 0 0 0
70 1 1 -2.1939344308491002e-01 1.2222879746999865e+01 4.2580599743241212e+00 2.8812939791562635e+00 0 0 0
72 1 1 -2.3028269396292245e-01 1.0141821197592231e+01 9.8266964905965910e+00 3.2319845582471123e+00 0 0 0
75 1 1 -2.2681137232526347e-01 8.1716028080334890e+00 1.5987897974684092e+01 1.0680353304330396e+01 0 0 0
79 1 1 -2.3664503110658960e-01 7.1741817511556913e+00 2.0300169738459783e+00 9.3728971676848225e+00 0 0 0
84 1 1 -2.2833973766247412e-01 1.0056483523928241e+01 2.2131649696916885e+01 2.8459321279892422e+00 0 0 0
88 1 1 -2.3316752874890467e-01 7.9635235725298958e+00 8.9680245237565863e+00 3.8537898344081976e+00 0 0 0
89 1 1 -2.2458816804772069e-01 1.1816873087934550e+01 1.0074057530084501e+01 1.0204692937783037e+01 0 0 0
90 1 1 -2.2996324015966152e-01 5.4985414576763896e+00 1.6777587166179938e+01 3.0035709712845562e+00 0 0 0
91 1 1 -2.2520467235368941e-01 1.0065966366365821e+01 1.6791342516310348e+01 9.3645631509112448e+00 0 0 0
93 1 1 -2.2802679488878744e-01 1.3101008775583283e+01 2.3192919946885642e+01 1.0237555832847359e+01 0 0 0
94 1 1 -2.3874207120542890e-01 5.9689388312486864e+00 1.7242503124516064e+00 1.9115937614567735e+00 0 0 0
95 1 1 -2.2793164678492578e-01 9.3571182134450961e+00 3.1618584625040516e+00 9.1316846400023906e+00 0 0 0
100 1 2 2.5543579821631374e-01 9.7449990572230920e+00 2.3912958735918998e+01 5.6775526628492141e+00 0 0 0
104 1 2 2.8995509131542274e-01 8.1761579429290325e+00 1.0589886617542039e+01 6.7971911838132737e+00 0 0 0
107 1 2 2.9296813532941385e-01 8.6532658365184467e+00 1.5291190413841399e+01 6.6295206156450543e+00 0 0 0
111 1 2 2.6853453649268982e-01 9.6981177389983682e+00 1.5336340071304644e+00 6.1934304145406029e+00 0 0 0
116 1 2 2.9317141514146472e-01 8.3821315764533963e+00 2.3233186186948121e+01 1.9859562580139580e+00 0 0 0
120 1 2 2.7207036986811228e-01 6.2560478963409523e+00 1.0101090070848311e+01 3.2901077416683799e+00 0 0 0
121 1 2 2.7517008574218671e-01 9.9137955269184648e+00 8.9699171049928950e+00 1.0383261573364003e+01 0 0 0
122 1 2 2.7114237378315986e-01 5.5172083659286901e+00 1.7898046069126821e+01 4.8189175342755410e+00 0 0 0
123 1 2 2.9846112794031071e-01 1.1746661422265602e+01 1.5372029551422020e+01 9.3011036672111906e+00 0 0 0
125 1 2 2.8863642572086212e-01 1.1364120362825236e+01 2.1950611674651924e+01 9.7703372512693640e+00 0 0 0
126 1 2 2.7803416448957086e-01 7.7859690260658114e+00 2.8857936807676019e+00 2.1556329963002936e+00 0 0 0
127 1 2 2.7676005830858497e-01 1.0968320560431202e+01 1.9452893052339895e+00 9.9814543174744337e+00 0 0 0
132 1 2 2.8732884390714347e-01 1.2376437069003936e+01 2.4905042113949417e+01 1.1896950969482314e+00 0 -1 0
134 1 2 2.7217319433809833e-01 1.3021380745331065e+01 6.0724368804027886e+00 3.5358822385930648e+00 0 0 0
136 1 2 2.5809906712426167e-01 1.0010858452733997e+01 1.1538448435109427e+01 1.9155061090111105e+00 0 0 0
139 1 2 2.5579344112217173e-01 8.5628645739985920e+00 1.4150933744813335e+01 1.1702169616843026e+01 0 0 0
143 1 2 2.7361345789641367e-01 7.1614071939933188e+00 1.1711242009749712e-02 1.0422168015520022e+01 0 1 0
145 1 2 2.7541044558916916e-01 4.6814550998589333e+00 6.9683547218375095e+00 1.2289449518594136e+01 0 0 0
146 1 2 2.8307744998408074e-01 1.4147890680605517e+01 1.7869750267072746e+01 -3.8354822474566896e-02 0 0 0
148 1 2 2.7575412273006256e-01 1.1736490625695858e+01 2.4924728314512382e+01 5.4785960245533474e+00 0 0 0
149 1 2 2.9175872297230437e-01 7.8772903452801097e+00 2.0597223829615221e+01 9.4299452166943283e+00 0 0 0
150 1 2 2.7772591777107919e-01 1.3517408589031358e+01 4.6226214024929915e+00 -2.7116696717812733e-01 0 0 0
152 1 2 2.6536632418406425e-01 1.0370047283720201e+01 1.1382471357372923e+01 6.1842138558369930e+00 0 0 0
155 1 2 2.8681293929976376e-01 6.8233897369131773e+00 1.4475845009286392e+01 8.0033486173920885e+00 0 0 0
159 1 2 2.5590615704590930e-01 7.6975594763556678e+00 5.7513944289231156e-01 6.4381467324434718e+00 0 0 0
161 1 2 2.8058761238776803e-01 6.1212112253684978e+00 9.0839865553688472e+00 9.2877243678987682e+00 0 0 0
162 1 2 2.8770291884286603e-01 1.2031160458187465e+01 1.7318678446104411e+01 3.3018431480794770e+00 0 0 0
164 1 2 2.9307275552360557e-01 1.3308142204389069e+01 2.2976241170301741e+01 2.1434138485022616e+00 0 0 0
165 1 2 2.7166509810296768e-01 6.4534820678922786e+00 2.4050659829947119e+01 7.9428148623423303e+00 0 0 0
166 1 2 2.9050466590463081e-01 1.1303652134954635e+01 4.6760387332844315e+00 3.2981904017836383e+00 0 0 0
168 1 2 2.6283236666755500e-01 1.1120110007042618e+01 9.6743948184922477e+00 2.7394660976192466e+00 0 0 0
171 1 2 2.7562909516431217e-01 7.6192528345249002e+00 1.6201065786029687e+01 1.1626148508922338e+01 0 0 0
175 1 2 2.8804497302002963e-01 6.3150549361697816e+00 2.1937631989603270e+00 9.9673524312737456e+00 0 0 0
180 1 2 2.7465121549773863e-01 9.4924705304497881e+00 2.1228357688969780e+01 2.4954572758119631e+00 0 0 0
184 1 2 2.8011753780193976e-01 7.2465194509188651e+00 8.2038402159330559e+00 3.6356291232133211e+00 0 0 0
185 1 2 2.8224330579460838e-01 1.1268554362250212e+01 1.1031702693582966e+01 1.0246014870872351e+01 0 0 0
186 1 2 2.7632457061585608e-01 6.4918484362298052e+00 1.7202252806158146e+01 2.9008046345053251e+00 0 0 0
187 1 2 2.8177781247299605e-01 1.0763994985794138e+01 1.7635564322582667e+01 9.3591542870607896e+00 0 0 0
189 1 2 2.9845050294124426e-01 1.2412529037193233e+01 2.4084999218535561e+01 1.0073551711107662e+01 0 0 0
190 1 2 2.8232144117430863e-01 6.6294410425338697e+00 9.0562946236253228e-01 1.9162537964990736e+00 0 0 0
191 1 2 2.7935540328849767e-01 9.9116901208687551e+00 4.0905964251345583e+00 9.4388003003419243e+00 0 0 0
196 1 3 1.6163294276541446e-01 9.1356054536330031e+00 2.4345084450185922e+01 3.6751322952095631e+00 0 0 0
200 1 3 1.6887968057698316e-01 7.2820369336026696e+00 1.1179032563286132e+01 5.0582478817686560e+00 0 0 0
201 1 3 1.7046996623792268e-01 1.1436151898039757e+01 7.9715972315960055e+00 1.1500783268891414e+01 0 0 0
202 1 3 1.7291996357329037e-01 3.5608608727248416e+00 1.8051872659314920e+01 3.9815326987761788e+00 0 0 0
203 1 3 1.7463962514999923e-01 1.0171675123315982e+01 1.4598660299692124e+01 8.0587000760838308e+00 0 0 0
205 1 3 1.6732311424351259e-01 1.2400450431729507e+01 2.1046269918222634e+01 1.1358508187202386e+01 0 0 0
206 1 3 1.7545429849303046e-01 6.3940269287939211e+00 3.9329927083426499e+00 7.7835869014589898e-01 0 0 0
207 1 3 1.7772377735656331e-01 1.0463745487446484e+01 1.1278655769264372e+00 8.0976593642164048e+00 0 0 0
212 1 3 3.4177471302320661e-01 7.6847302148100241e+00 2.4119186924757859e+01 4.1457264885790943e+00 0 0 0
216 1 3 3.4222585562330793e-01 5.9056999316753966e+00 1.1182705955190491e+01 5.7340548688653366e+00 0 0 0
217 1 3 3.4898819488842781e-01 1.0556652225895210e+01 8.0687504691609870e+00 1.2760257057704340e+01 0 0 0
218 1 3 3.4119002855964708e-01 3.8443576331196025e+00 1.9597803451832622e+01 3.9567731207157575e+00 0 0 0
219 1 3 3.4796839512725036e-01 1.1206788827737466e+01 1.4777969170082075e+01 6.9139270347583066e+00 0 0 0
221 1 3 3.3034841831274869e-01 1.1093221171808686e+01 2.1299454129018784e+01 1.2114914555845793e+01 0 0 0
222 1 3 3.4410656325991384e-01 7.5636438473938750e+00 3.7814324825125700e+00 -2.1936718522741383e-01 0 0 0
223 1 3 3.6204928936056424e-01 1.1891926891614457e+01 1.4556160535421157e+00 7.5927688488472826e+00 0 0 0
228 1 3 1.8224356508396120e-01 1.0261062675759224e+01 2.4127263265788635e+01 1.3559103218489623e+00 0 0 0
232 1 3 1.8853707564279815e-01 7.9923427494422308e+00 1.1067726689609112e+01 2.4942898730297496e+00 0 0 0
233 1 3 1.7892102060839127e-01 1.1214998799371127e+01 7.8985887119090261e+00 8.9688145285952174e+00 0 0 0
234 1 3 1.7707802604912479e-01 4.5284006983931775e+00 1.6135534871892851e+01 5.3276543598144501e+00 0 0 0
235 1 3 1.8563785545896599e-01 1.0292080975219934e+01 1.4553322776370191e+01 1.0613973463869282e+01 0 0 0
237 1 3 1.8611279267059971e-01 1.2994724040186025e+01 2.1111847884699120e+01 8.8214704422798569e+00 0 0 0
238 1 3 1.8096547241229055e-01 6.2991057645427606e+00 3.8594445036968237e+00 3.3118710928029471e+00 0 0 0
239 1 3 1.8792669006529375e-01 9.2052229069038116e+00 8.9496319428983417e-01 1.0387194454032599e+01 0 0 0
244 1 3 3.4775823014456919e-01 9.8390920075068333e+00 2.3823371942576781e+01 -7.1002796591776107e-02 0 0 0
248 1 3 3.3164603973288120e-01 7.7923446122852438e+00 1.0344775668156782e+01 1.1682581100274050e+00 0 0 0
249 1 3 3.1791802832611926e-01 1.0616175622980981e+01 8.5949881278897990e+00 7.7567435820076147e+00 0 0 0
250 1 3 3.1594813849077896e-01 5.7640745596650866e+00 1.5498476532803938e+01 5.9572123594708595e+00 0 0 0
251 1 3 3.2566410422641601e-01 1.0882129450499605e+01 1.5190961917505941e+01 1.1869505605089284e+01 0 0 0
253 1 3 3.3630254901476281e-01 1.2817169536646041e+01 2.1798781104997545e+01 7.4390644154307495e+00 0 0 0
254 1 3 3.2442575453754097e-01 6.7824047526378788e+00 3.2487063656265480e+00 4.6183688128575344e+00 0 0 0
255 1 3 3.4730346470406603e-01 9.2163992995048289e+00 1.3836936355259604e+00 1.1879293275343883e+01 0 0 0
257 1 3 1.8125923025055224e-01 4.5002335872482684e+00 6.6824059022019116e+00 1.0176873542659511e+01 0 0 0
258 1 3 1.7265431147662749e-01 1.4303290996822502e+01 1.8879481988432499e+01 1.8168029267944501e+00 0 0 0
260 1 3 1.8249567309842657e-01 1.1695762409801258e+01 2.5408664073577931e+01 3.1547840134573066e+00 0 -1 0
261 1 3 1.8148098896013823e-01 6.5249574306619591e+00 2.0941787100591860e+01 7.9087251119736761e+00 0 0 0
262 1 3 1.7250922852969841e-01 1.3880122829690972e+01 5.6032959209284048e+00 1.6926293993691468e+00 0 0 0
264 1 3 1.8634600544854218e-01 9.7808405197331325e+00 1.2058766209664299e+01 3.9895842810055404e+00 0 0 0
267 1 3 1.8640319967887831e-01 7.9858658021036621e+00 1.3768885422824269e+01 9.6723792298315523e+00 0 0 0
271 1 3 1.7614560802919310e-01 7.8781221837794932e+00 -1.7113723957151539e-01 8.5032912628384736e+00 0 1 0
276 1 3 3.2665798473281826e-01 8.5866864688224442e+00 -5.5065402979344369e-01 3.1261886782369657e+00 0 0 0
280 1 3 3.4429931909994271e-01 8.7621019860208804e+00 1.3221753159524058e+01 4.1120391529330496e+00 0 0 0
281 1 3 3.3970543565044148e-01 1.2457884095246250e+01 5.7086828479371263e+00 1.0432077017692858e+01 0 0 0
283 1 3 3.3499587441486056e-01 8.7861133487643919e+00 1.2656413044984149e+01 9.0085637200998470e+00 0 0 0
287 1 3 3.3596815086359089e-01 1.1085764469625730e+01 2.5835410958452790e+01 8.5723185282872372e+00 0 0 0
289 1 3 1.7207410799536274e-01 5.3688302022828704e+00 8.6878333139703052e+00 1.1275890006324673e+01 0 0 0
290 1 3 1.8114322063385399e-01 1.2964846696840025e+01 1.6915576735871898e+01 1.3955037649491064e+00 0 0 0
292 1 3 1.8192054133017421e-01 1.2479014843445690e+01 2.3358527840886147e+01 4.2647689242086440e+00 0 0 0