ITEM: TIMESTEP
0
ITEM: NUMBER OF ATOMS
672
ITEM: BOX BOUNDS xy xz yz pp pp pp
0.0000000000000000e+00 2.9982000351000000e+01 0.0000000000000000e+00
0.0000000000000000e+00 1.2154000282300000e+01 0.0000000000000000e+00
0.0000000000000000e+00 2.0017000198400002e+01 0.0000000000000000e+00
ITEM: ATOMS id type xs ys zs
1 1 0.142374 0.0697399 0.155389
2 1 0.642374 0.0697399 0.155389
3 1 0.357626 0.93026 0.655389
4 1 0.857626 0.93026 0.655389
5 1 0.392374 0.93026 0.155389
6 1 0.892374 0.93026 0.155389
7 1 0.107626 0.0697399 0.655389
8 1 0.607626 0.0697399 0.655389
9 1 0.142374 0.56974 0.155389
10 1 0.642374 0.56974 0.155389
11 1 0.357626 0.43026 0.655389
12 1 0.857626 0.43026 0.655389
13 1 0.392374 0.43026 0.155389
14 1 0.892374 0.43026 0.155389
15 1 0.107626 0.56974 0.655389
16 1 0.607626 0.56974 0.655389
17 1 0.188313 0.0487855 0.151245
18 1 0.688313 0.0487855 0.151245
19 1 0.311687 0.951214 0.651245
20 1 0.811687 0.951215 0.651245
21 1 0.438313 0.951214 0.151245
22 1 0.938313 0.951214 0.151245
23 1 0.061687 0.0487855 0.651245
24 1 0.561687 0.0487855 0.651245
25 1 0.188313 0.548786 0.151245
26 1 0.688313 0.548786 0.151245
27 1 0.311687 0.451214 0.651245
28 1 0.811687 0.451215 0.651245
29 1 0.438313 0.451214 0.151245
30 1 0.938313 0.451214 0.151245
31 1 0.061687 0.548785 0.651245
32 1 0.561687 0.548786 0.651245
33 1 0.21475 0.114972 0.110313
34 1 0.71475 0.114972 0.110313
35 1 0.28525 0.885028 0.610313
36 1 0.78525 0.885028 0.610313
37 1 0.46475 0.885028 0.110313
38 1 0.96475 0.885028 0.110313
39 1 0.0352501 0.114972 0.610313
40 1 0.53525 0.114972 0.610313
41 1 0.21475 0.614972 0.110313
42 1 0.71475 0.614972 0.110313
43 1 0.28525 0.385028 0.610313
44 1 0.78525 0.385028 0.610313
45 1 0.46475 0.385028 0.110313
46 1 0.96475 0.385028 0.110313
47 1 0.0352501 0.614972 0.610313
48 1 0.53525 0.614972 0.610313
49 1 0.194394 0.199781 0.0737477
50 1 0.694394 0.199781 0.0737477
51 1 0.305606 0.800219 0.573748
52 1 0.805606 0.800219 0.573748
53 1 0.444394 0.800219 0.0737477
54 1 0.944394 0.800219 0.0737477
55 1 0.0556058 0.199781 0.573748
56 1 0.555606 0.199781 0.573748
57 1 0.194394 0.699781 0.0737477
58 1 0.694394 0.699781 0.0737477
59 1 0.305606 0.300219 0.573748
60 1 0.805606 0.300219 0.573748
61 1 0.444394 0.300219 0.0737477
62 1 0.944394 0.300219 0.0737477
63 1 0.0556058 0.699781 0.573748
64 1 0.555606 0.699781 0.573748
65 1 0.148484 0.221779 0.0785513
66 1 0.648484 0.221779 0.0785513
67 1 0.351516 0.778221 0.578551
68 1 0.851516 0.778221 0.578551
69 1 0.398484 0.778221 0.0785513
70 1 0.898484 0.778221 0.0785513
71 1 0.101516 0.221779 0.578551
72 1 0.601516 0.221779 0.578551
73 1 0.148484 0.721779 0.0785513
74 1 0.648484 0.721779 0.0785513
75 1 0.351516 0.278221 0.578551
76 1 0.851516 0.278221 0.578551
77 1 0.398484 0.278221 0.0785513
78 1 0.898484 0.278221 0.0785513
79 1 0.101516 0.721779 0.578551
80 1 0.601516 0.721779 0.578551
81 1 0.121672 0.154333 0.118735
82 1 0.621672 0.154333 0.118735
83 1 0.378328 0.845667 0.618735
84 1 0.878328 0.845667 0.618735
85 1 0.371672 0.845667 0.118735
86 1 0.871672 0.845667 0.118735
87 1 0.128328 0.154333 0.618735
88 1 0.628328 0.154333 0.618735
89 1 0.121672 0.654333 0.118735
90 1 0.621672 0.654333 0.118735
91 1 0.378328 0.345667 0.618735
92 1 0.878328 0.345667 0.618735
93 1 0.371672 0.345667 0.118735
94 1 0.871672 0.345667 0.118735
95 1 0.128328 0.654333 0.618735
96 1 0.628328 0.654333 0.618735
97 1 0.11582 0.998067 0.206189
98 1 0.61582 0.998067 0.206189
99 1 0.38418 0.00193263 0.706189
100 1 0.88418 0.00193264 0.706189
101 1 0.36582 0.00193264 0.206189
102 1 0.86582 0.00193262 0.206189
103 1 0.13418 0.998067 0.706189
104 1 0.63418 0.998067 0.706189
105 1 0.11582 0.498067 0.206189
106 1 0.61582 0.498067 0.206189
107 1 0.38418 0.501933 0.706189
108 1 0.88418 0.501933 0.706189
109 1 0.36582 0.501933 0.206189
110 1 0.86582 0.501933 0.206189
111 1 0.13418 0.498067 0.706189
112 1 0.63418 0.498067 0.706189
113 1 0.263763 0.183649 0.844878
114 1 0.763762 0.18365 0.844878
115 1 0.236237 0.816351 0.344878
116 1 0.736238 0.81635 0.344878
117 1 0.0137625 0.816351 0.844878
118 1 0.513762 0.81635 0.844878
119 1 0.486237 0.183649 0.344878
120 1 0.986238 0.18365 0.344878
121 1 0.263763 0.683649 0.844878
122 1 0.763762 0.68365 0.844878
123 1 0.236237 0.316351 0.344878
124 1 0.736238 0.31635 0.344878
125 1 0.0137625 0.316351 0.844878
126 1 0.513762 0.31635 0.844878
127 1 0.486237 0.683649 0.344878
128 1 0.986238 0.68365 0.344878
129 1 0.310178 0.200214 0.848157
130 1 0.810178 0.200214 0.848157
131 1 0.189822 0.799786 0.348157
132 1 0.689822 0.799786 0.348157
133 1 0.0601775 0.799786 0.848157
134 1 0.560178 0.799786 0.848157
135 1 0.439822 0.200214 0.348157
136 1 0.939822 0.200214 0.348157
137 1 0.310178 0.700214 0.848157
138 1 0.810178 0.700214 0.848157
139 1 0.189822 0.299786 0.348157
140 1 0.689822 0.299786 0.348157
141 1 0.0601775 0.299786 0.848157
142 1 0.560178 0.299786 0.848157
143 1 0.439822 0.700214 0.348157
144 1 0.939822 0.700214 0.348157
145 1 0.336398 0.131959 0.889203
146 1 0.836398 0.131959 0.889203
147 1 0.163602 0.868041 0.389203
148 1 0.663602 0.868041 0.389203
149 1 0.0863979 0.868041 0.889203
150 1 0.586398 0.868041 0.889203
151 1 0.413602 0.131959 0.389203
152 1 0.913602 0.131959 0.389203
153 1 0.336398 0.631959 0.889203
154 1 0.836398 0.631959 0.889203
155 1 0.163602 0.368041 0.389203
156 1 0.663602 0.368041 0.389203
157 1 0.0863979 0.368041 0.889203
158 1 0.586398 0.368041 0.889203
159 1 0.413602 0.631959 0.389203
160 1 0.913602 0.631959 0.389203
161 1 0.316245 0.0449514 0.923683
162 1 0.816245 0.0449514 0.923683
163 1 0.183755 0.955049 0.423683
164 1 0.683755 0.955049 0.423683
165 1 0.0662452 0.955049 0.923683
166 1 0.566245 0.955049 0.923683
167 1 0.433755 0.0449514 0.423683
168 1 0.933755 0.0449514 0.423683
169 1 0.316245 0.544951 0.923683
170 1 0.816245 0.544951 0.923683
171 1 0.183755 0.455049 0.423683
172 1 0.683755 0.455049 0.423683
173 1 0.0662452 0.455049 0.923683
174 1 0.566245 0.455049 0.923683
175 1 0.433755 0.544951 0.423683
176 1 0.933755 0.544951 0.423683
177 1 0.270339 0.0242219 0.918547
178 1 0.770339 0.0242219 0.918547
179 1 0.229661 0.975778 0.418547
180 1 0.729661 0.975778 0.418547
181 1 0.0203389 0.975778 0.918547
182 1 0.520339 0.975778 0.918547
183 1 0.479661 0.0242219 0.418547
184 1 0.979661 0.0242219 0.418547
185 1 0.270339 0.524222 0.918547
186 1 0.770339 0.524222 0.918547
187 1 0.229661 0.475778 0.418547
188 1 0.729661 0.475778 0.418547
189 1 0.0203389 0.475778 0.918547
190 1 0.520339 0.475778 0.918547
191 1 0.479661 0.524222 0.418547
192 1 0.979661 0.524222 0.418547
193 1 0.244531 0.0977685 0.881165
194 1 0.744531 0.0977686 0.881165
195 1 0.255469 0.902232 0.381165
196 1 0.755469 0.902231 0.381165
197 1 0.494531 0.902231 0.881165
198 1 0.994531 0.902232 0.881165
199 1 0.00546896 0.0977686 0.381165
200 1 0.505469 0.0977685 0.381165
201 1 0.244531 0.597768 0.881165
202 1 0.744531 0.597769 0.881165
203 1 0.255469 0.402232 0.381165
204 1 0.755469 0.402231 0.381165
205 1 0.494531 0.402231 0.881165
206 1 0.994531 0.402232 0.881165
207 1 0.00546895 0.597769 0.381165
208 1 0.505469 0.597768 0.381165
209 1 0.231523 0.250612 0.799419
210 1 0.731523 0.250612 0.799419
211 1 0.268477 0.749388 0.299419
212 1 0.768477 0.749388 0.299419
213 1 0.481523 0.749388 0.799419
214 1 0.981523 0.749388 0.799419
215 1 0.0184773 0.250612 0.299419
216 1 0.518477 0.250612 0.299419
217 1 0.231523 0.750612 0.799419
218 1 0.731523 0.750612 0.799419
219 1 0.268477 0.249388 0.299419
220 1 0.768477 0.249388 0.299419
221 1 0.481523 0.249388 0.799419
222 1 0.981523 0.249388 0.799419
223 1 0.0184773 0.750612 0.299419
224 1 0.518477 0.750612 0.299419
225 2 0.211914 0.9564 0.192947
226 2 0.711914 0.9564 0.192947
227 2 0.288086 0.0436002 0.692947
228 2 0.788086 0.0436002 0.692947
229 2 0.461914 0.0436002 0.192947
230 2 0.961914 0.0436002 0.192947
231 2 0.0380856 0.9564 0.692947
232 2 0.538086 0.9564 0.692947
233 2 0.211914 0.4564 0.192947
234 2 0.711914 0.4564 0.192947
235 2 0.288086 0.5436 0.692947
236 2 0.788086 0.5436 0.692947
237 2 0.461914 0.5436 0.192947
238 2 0.961914 0.5436 0.192947
239 2 0.0380856 0.4564 0.692947
240 2 0.538086 0.4564 0.692947
241 2 0.222962 0.272305 0.0267724
242 2 0.722962 0.272305 0.0267724
243 2 0.277038 0.727695 0.526772
244 2 0.777038 0.727695 0.526772
245 2 0.472962 0.727695 0.0267724
246 2 0.972962 0.727695 0.0267724
247 2 0.0270378 0.272305 0.526772
248 2 0.527038 0.272305 0.526772
249 2 0.222962 0.772305 0.0267724
250 2 0.722962 0.772305 0.0267724
251 2 0.277038 0.227695 0.526772
252 2 0.777038 0.227695 0.526772
253 2 0.472962 0.227695 0.0267724
254 2 0.972962 0.227695 0.0267724
255 2 0.0270378 0.772305 0.526772
256 2 0.527038 0.772305 0.526772
257 2 0.070045 0.175798 0.122909
258 2 0.570045 0.175798 0.122909
259 2 0.429955 0.824202 0.622909
260 2 0.929955 0.824202 0.622909
261 2 0.320045 0.824202 0.122909
262 2 0.820045 0.824202 0.122909
263 2 0.179955 0.175798 0.622909
264 2 0.679955 0.175798 0.622909
265 2 0.070045 0.675798 0.122909
266 2 0.570045 0.675798 0.122909
267 2 0.429955 0.324202 0.622909
268 2 0.929955 0.324202 0.622909
269 2 0.320045 0.324202 0.122909
270 2 0.820045 0.324202 0.122909
271 2 0.179955 0.675798 0.622909
272 2 0.679955 0.675798 0.622909
273 2 0.335213 0.290757 0.807509
274 2 0.835213 0.290757 0.807509
275 2 0.164787 0.709243 0.307509
276 2 0.664787 0.709243 0.307509
277 2 0.0852125 0.709243 0.807509
278 2 0.585213 0.709243 0.807509
279 2 0.414787 0.290757 0.307509
280 2 0.914787 0.290757 0.307509
281 2 0.335213 0.790757 0.807509
282 2 0.835213 0.790757 0.807509
283 2 0.164787 0.209243 0.307509
284 2 0.664787 0.209243 0.307509
285 2 0.0852125 0.209243 0.807509
286 2 0.585213 0.209243 0.807509
287 2 0.414787 0.790757 0.307509
288 2 0.914787 0.790757 0.307509
289 2 0.34538 0.969026 0.968275
290 2 0.84538 0.969026 0.968275
291 2 0.15462 0.0309735 0.468275
292 2 0.65462 0.0309736 0.468275
293 2 0.0953802 0.0309735 0.968275
294 2 0.59538 0.0309736 0.968275
295 2 0.40462 0.969026 0.468275
296 2 0.90462 0.969026 0.468275
297 2 0.34538 0.469026 0.968275
298 2 0.84538 0.469026 0.968275
299 2 0.15462 0.530974 0.468275
300 2 0.65462 0.530974 0.468275
301 2 0.0953801 0.530974 0.968275
302 2 0.59538 0.530974 0.968275
303 2 0.40462 0.469026 0.468275
304 2 0.90462 0.469026 0.468275
305 2 0.192847 0.0767065 0.88023
306 2 0.692847 0.0767065 0.88023
307 2 0.307153 0.923293 0.38023
308 2 0.807153 0.923294 0.38023
309 2 0.442847 0.923294 0.88023
310 2 0.942847 0.923293 0.88023
311 2 0.0571535 0.0767064 0.38023
312 2 0.557153 0.0767065 0.38023
313 2 0.192847 0.576707 0.88023
314 2 0.692847 0.576706 0.88023
315 2 0.307153 0.423293 0.38023
316 2 0.807153 0.423294 0.38023
317 2 0.442847 0.423294 0.88023
318 2 0.942847 0.423293 0.88023
319 2 0.0571535 0.576706 0.38023
320 2 0.557153 0.576707 0.38023
321 3 0.194221 0.859022 0.196281
322 3 0.694221 0.859022 0.196281
323 3 0.305779 0.140978 0.696281
324 3 0.805779 0.140978 0.696281
325 3 0.444221 0.140978 0.196281
326 3 0.944221 0.140978 0.196281
327 3 0.0557785 0.859022 0.696281
328 3 0.555779 0.859022 0.696281
329 3 0.194221 0.359022 0.196281
330 3 0.694221 0.359022 0.196281
331 3 0.305779 0.640978 0.696281
332 3 0.805779 0.640978 0.696281
333 3 0.444221 0.640978 0.196281
334 3 0.944221 0.640978 0.196281
335 3 0.0557785 0.359022 0.696281
336 3 0.555779 0.359022 0.696281
337 3 0.249009 0.981036 0.222975
338 3 0.749009 0.981036 0.222975
339 3 0.250991 0.0189642 0.722975
340 3 0.750991 0.0189642 0.722975
341 3 0.499009 0.0189642 0.222975
342 3 0.999009 0.0189642 0.222975
343 3 0.000990628 0.981036 0.722975
344 3 0.500991 0.981036 0.722975
345 3 0.249009 0.481036 0.222975
346 3 0.749009 0.481036 0.222975
347 3 0.250991 0.518964 0.722975
348 3 0.750991 0.518964 0.722975
349 3 0.499009 0.518964 0.222975
350 3 0.999009 0.518964 0.222975
351 3 0.00099063 0.481036 0.722975
352 3 0.500991 0.481036 0.722975
353 3 0.260811 0.233443 0.00470437
354 3 0.760811 0.233443 0.00470436
355 3 0.239189 0.766557 0.504704
356 3 0.739189 0.766557 0.504704
357 3 0.0108112 0.766557 0.00470437
358 3 0.510811 0.766557 0.00470436
359 3 0.489189 0.233443 0.504704
360 3 0.989189 0.233443 0.504704
361 3 0.260811 0.733443 0.00470438
362 3 0.760811 0.733443 0.00470436
363 3 0.239189 0.266557 0.504704
364 3 0.739189 0.266557 0.504704
365 3 0.0108112 0.266557 0.00470438
366 3 0.510811 0.266557 0.00470436
367 3 0.489189 0.733443 0.504704
368 3 0.989189 0.733443 0.504704
369 3 0.208567 0.370331 0.0108336
370 3 0.708567 0.370331 0.0108336
371 3 0.291433 0.629669 0.510834
372 3 0.791433 0.629669 0.510834
373 3 0.458567 0.629669 0.0108336
374 3 0.958567 0.629669 0.0108336
375 3 0.0414333 0.370331 0.510834
376 3 0.541433 0.370331 0.510834
377 3 0.208567 0.870331 0.0108336
378 3 0.708567 0.870331 0.0108336
379 3 0.291433 0.129669 0.510834
380 3 0.791433 0.129669 0.510834
381 3 0.458567 0.129669 0.0108336
382 3 0.958567 0.129669 0.0108336
383 3 0.0414333 0.870331 0.510834
384 3 0.541433 0.870331 0.510834
385 3 0.055941 0.275251 0.134171
386 3 0.555941 0.275251 0.134171
387 3 0.444059 0.724749 0.634171
388 3 0.944059 0.724749 0.634171
389 3 0.305941 0.724749 0.134171
390 3 0.805941 0.724749 0.134171
391 3 0.194059 0.275251 0.634171
392 3 0.694059 0.275251 0.634171
393 3 0.055941 0.775251 0.134171
394 3 0.555941 0.775251 0.134171
395 3 0.444059 0.224749 0.634171
396 3 0.944059 0.224749 0.634171
397 3 0.305941 0.224749 0.134171
398 3 0.805941 0.224749 0.134171
399 3 0.194059 0.775251 0.634171
400 3 0.694059 0.775251 0.634171
401 3 0.0430396 0.0941341 0.111666
402 3 0.54304 0.0941341 0.111666
403 3 0.45696 0.905866 0.611666
404 3 0.95696 0.905866 0.611666
405 3 0.29304 0.905866 0.111666
406 3 0.79304 0.905866 0.111666
407 3 0.20696 0.0941341 0.611666
408 3 0.70696 0.0941341 0.611666
409 3 0.0430396 0.594134 0.111666
410 3 0.54304 0.594134 0.111666
411 3 0.45696 0.405866 0.611666
412 3 0.95696 0.405866 0.611666
413 3 0.29304 0.405866 0.111666
414 3 0.79304 0.405866 0.111666
415 3 0.20696 0.594134 0.611666
416 3 0.70696 0.594134 0.611666
417 3 0.317605 0.387974 0.80277
418 3 0.817605 0.387974 0.80277
419 3 0.182395 0.612026 0.30277
420 3 0.682395 0.612026 0.30277
421 3 0.0676051 0.612026 0.80277
422 3 0.567605 0.612026 0.80277
423 3 0.432395 0.387974 0.30277
424 3 0.932395 0.387974 0.30277
425 3 0.317605 0.887974 0.80277
426 3 0.817605 0.887974 0.80277
427 3 0.182395 0.112026 0.30277
428 3 0.682395 0.112026 0.30277
429 3 0.0676051 0.112026 0.80277
430 3 0.567605 0.112026 0.80277
431 3 0.432395 0.887974 0.30277
432 3 0.932395 0.887974 0.30277
433 3 0.373217 0.265653 0.780083
434 3 0.873217 0.265653 0.780083
435 3 0.126783 0.734347 0.280083
436 3 0.626783 0.734347 0.280083
437 3 0.123217 0.734347 0.780083
438 3 0.623217 0.734347 0.780083
439 3 0.376783 0.265653 0.280083
440 3 0.876783 0.265653 0.280083
441 3 0.373217 0.765653 0.780083
442 3 0.873217 0.765653 0.780083
443 3 0.126783 0.234347 0.280083
444 3 0.626783 0.234347 0.280083
445 3 0.123217 0.234347 0.780083
446 3 0.623217 0.234347 0.780083
447 3 0.376783 0.765653 0.280083
448 3 0.876783 0.765653 0.280083
449 3 0.379848 0.0111567 0.998823
450 3 0.879848 0.0111567 0.998823
451 3 0.120152 0.988843 0.498823
452 3 0.620152 0.988843 0.498823
453 3 0.129848 0.988843 0.998823
454 3 0.629848 0.988843 0.998823
455 3 0.370152 0.0111568 0.498823
456 3 0.870152 0.0111567 0.498823
457 3 0.379848 0.511157 0.998823
458 3 0.879848 0.511157 0.998823
459 3 0.120152 0.488843 0.498823
460 3 0.620152 0.488843 0.498823
461 3 0.129848 0.488843 0.998823
462 3 0.629848 0.488843 0.998823
463 3 0.370152 0.511157 0.498823
464 3 0.870152 0.511157 0.498823
465 3 0.333705 0.866217 0.974961
466 3 0.833705 0.866217 0.974961
467 3 0.166295 0.133783 0.474961
468 3 0.666295 0.133783 0.474961
469 3 0.083705 0.133783 0.974961
470 3 0.583705 0.133783 0.974961
471 3 0.416295 0.866217 0.474961
472 3 0.916295 0.866217 0.474961
473 3 0.333705 0.366217 0.974961
474 3 0.833705 0.366217 0.974961
475 3 0.166295 0.633783 0.474961
476 3 0.666295 0.633783 0.474961
477 3 0.083705 0.633783 0.974961
478 3 0.583705 0.633783 0.974961
479 3 0.416295 0.366217 0.474961
480 3 0.916295 0.366217 0.474961
481 3 0.178235 0.982077 0.859984
482 3 0.678235 0.982078 0.859984
483 3 0.321765 0.0179226 0.359984
484 3 0.821765 0.0179224 0.359984
485 3 0.428235 0.0179224 0.859984
486 3 0.928235 0.0179226 0.859984
487 3 0.0717648 0.982078 0.359984
488 3 0.571765 0.982077 0.359984
489 3 0.178235 0.482077 0.859984
490 3 0.678235 0.482078 0.859984
491 3 0.321765 0.517923 0.359984
492 3 0.821765 0.517922 0.359984
493 3 0.428235 0.517922 0.859984
494 3 0.928235 0.517923 0.859984
495 3 0.0717648 0.482078 0.359984
496 3 0.571765 0.482077 0.359984
497 3 0.167007 0.155398 0.90047
498 3 0.667007 0.155398 0.90047
499 3 0.332993 0.844602 0.40047
500 3 0.832993 0.844602 0.40047
501 3 0.417007 0.844602 0.90047
502 3 0.917007 0.844602 0.90047
503 3 0.0829925 0.155398 0.40047
504 3 0.582993 0.155398 0.40047
505 3 0.167007 0.655398 0.90047
506 3 0.667007 0.655398 0.90047
507 3 0.332993 0.344602 0.40047
508 3 0.832993 0.344602 0.40047
509 3 0.417007 0.344602 0.90047
510 3 0.917007 0.344602 0.90047
511 3 0.0829925 0.655398 0.40047
512 3 0.582993 0.655398 0.40047
513 4 0.137003 0.970527 0.247357
514 4 0.637003 0.970527 0.247357
515 4 0.362997 0.0294727 0.747357
516 4 0.862997 0.0294727 0.747357
517 4 0.387003 0.0294727 0.247357
518 4 0.887003 0.0294727 0.247357
519 4 0.112997 0.970527 0.747357
520 4 0.612997 0.970527 0.747357
521 4 0.137003 0.470527 0.247357
522 4 0.637003 0.470527 0.247357
523 4 0.362997 0.529473 0.747357
524 4 0.862997 0.529473 0.747357
525 4 0.387003 0.529473 0.247357
526 4 0.887003 0.529473 0.247357
527 4 0.112997 0.470527 0.747357
528 4 0.612997 0.470527 0.747357
529 4 0.102856 0.924622 0.181362
530 4 0.602856 0.924622 0.181362
531 4 0.397144 0.075378 0.681362
532 4 0.897144 0.075378 0.681362
533 4 0.352856 0.075378 0.181362
534 4 0.852856 0.075378 0.181362
535 4 0.147144 0.924622 0.681362
536 4 0.647144 0.924622 0.681362
537 4 0.102856 0.424622 0.181362
538 4 0.602856 0.424622 0.181362
539 4 0.397144 0.575378 0.681362
540 4 0.897144 0.575378 0.681362
541 4 0.352856 0.575378 0.181362
542 4 0.852856 0.575378 0.181362
543 4 0.147144 0.424622 0.681362
544 4 0.647144 0.424622 0.681362
545 4 0.0881751 0.0442613 0.227819
546 4 0.588175 0.0442613 0.227819
547 4 0.411825 0.955739 0.727819
548 4 0.911825 0.955739 0.727819
549 4 0.338175 0.955739 0.227819
550 4 0.838175 0.955739 0.227819
551 4 0.161825 0.0442613 0.727819
552 4 0.661825 0.0442613 0.727819
553 4 0.0881751 0.544261 0.227819
554 4 0.588175 0.544261 0.227819
555 4 0.411825 0.455739 0.727819
556 4 0.911825 0.455739 0.727819
557 4 0.338175 0.455739 0.227819
558 4 0.838175 0.455739 0.227819
559 4 0.161825 0.544261 0.727819
560 4 0.661825 0.544261 0.727819
561 4 0.250317 0.0998581 0.107582
562 4 0.750317 0.0998581 0.107582
563 4 0.249683 0.900142 0.607582
564 4 0.749683 0.900142 0.607582
565 4 0.500317 0.900142 0.107582
566 4 0.000316646 0.900142 0.107582
567 4 0.999683 0.0998581 0.607582
568 4 0.499683 0.0998581 0.607582
569 4 0.250317 0.599858 0.107582
570 4 0.750317 0.599858 0.107582
571 4 0.249683 0.400142 0.607582
572 4 0.749683 0.400142 0.607582
573 4 0.500317 0.400142 0.107582
574 4 0.000316638 0.400142 0.107582
575 4 0.999683 0.599858 0.607582
576 4 0.499683 0.599858 0.607582
577 4 0.133679 0.288125 0.0501751
578 4 0.633679 0.288125 0.0501751
579 4 0.366321 0.711875 0.550175
580 4 0.866321 0.711875 0.550175
581 4 0.383679 0.711875 0.0501751
582 4 0.883679 0.711875 0.0501751
583 4 0.116321 0.288125 0.550175
584 4 0.616321 0.288125 0.550175
585 4 0.133679 0.788125 0.0501751
586 4 0.633679 0.788125 0.0501751
587 4 0.366321 0.211875 0.550175
588 4 0.866321 0.211875 0.550175
589 4 0.383679 0.211875 0.0501751
590 4 0.883679 0.211875 0.0501751
591 4 0.116321 0.788125 0.550175
592 4 0.616321 0.788125 0.550175
593 4 0.248284 0.283115 0.755071
594 4 0.748284 0.283115 0.755071
595 4 0.251716 0.716885 0.255071
596 4 0.751716 0.716885 0.255071
597 4 0.498284 0.716885 0.755071
598 4 0.998284 0.716885 0.755071
599 4 0.00171604 0.283115 0.255071
600 4 0.501716 0.283115 0.255071
601 4 0.248284 0.783115 0.755071
602 4 0.748284 0.783115 0.755071
603 4 0.251716 0.216885 0.255071
604 4 0.751716 0.216885 0.255071
605 4 0.498284 0.216885 0.755071
606 4 0.998284 0.216885 0.755071
607 4 0.00171604 0.783115 0.255071
608 4 0.501716 0.783115 0.255071
609 4 0.203719 0.199599 0.78213
610 4 0.703719 0.199599 0.78213
611 4 0.296281 0.800401 0.28213
612 4 0.796281 0.800401 0.28213
613 4 0.453719 0.800401 0.78213
614 4 0.953719 0.800401 0.78213
615 4 0.0462805 0.199599 0.28213
616 4 0.546281 0.199599 0.28213
617 4 0.203719 0.699599 0.78213
618 4 0.703719 0.699599 0.78213
619 4 0.296281 0.300401 0.28213
620 4 0.796281 0.300401 0.28213
621 4 0.453719 0.300401 0.78213
622 4 0.953719 0.300401 0.78213
623 4 0.0462805 0.699599 0.28213
624 4 0.546281 0.699599 0.28213
625 4 0.215956 0.319584 0.825867
626 4 0.715956 0.319584 0.825867
627 4 0.284044 0.680416 0.325867
628 4 0.784044 0.680416 0.325867
629 4 0.465956 0.680416 0.825867
630 4 0.965956 0.680416 0.825867
631 4 0.0340436 0.319584 0.325867
632 4 0.534044 0.319584 0.325867
633 4 0.215956 0.819584 0.825867
634 4 0.715956 0.819584 0.825867
635 4 0.284044 0.180416 0.325867
636 4 0.784044 0.180416 0.325867
637 4 0.465956 0.180416 0.825867
638 4 0.965956 0.180416 0.825867
639 4 0.0340436 0.819584 0.325867
640 4 0.534044 0.819584 0.325867
641 4 0.371979 0.145617 0.893291
642 4 0.871979 0.145617 0.893291
643 4 0.128021 0.854383 0.393291
644 4 0.628021 0.854383 0.393291
645 4 0.121979 0.854383 0.893291
646 4 0.621979 0.854383 0.893291
647 4 0.378021 0.145617 0.393291
648 4 0.878021 0.145617 0.393291
649 4 0.371979 0.645617 0.893291
650 4 0.871979 0.645617 0.893291
651 4 0.128021 0.354383 0.393291
652 4 0.628021 0.354383 0.393291
653 4 0.121979 0.354383 0.893291
654 4 0.621979 0.354383 0.893291
655 4 0.378021 0.645617 0.393291
656 4 0.878021 0.645617 0.393291
657 4 0.254691 0.955911 0.944492
658 4 0.754691 0.955911 0.944492
659 4 0.245309 0.0440889 0.444492
660 4 0.745309 0.0440891 0.444492
661 4 0.0046912 0.0440889 0.944492
662 4 0.504691 0.0440891 0.944492
663 4 0.495309 0.955911 0.444492
664 4 0.995309 0.955911 0.444492
665 4 0.254691 0.455911 0.944492
666 4 0.754691 0.455911 0.944492
667 4 0.245309 0.544089 0.444492
668 4 0.745309 0.544089 0.444492
669 4 0.00469119 0.544089 0.944492
670 4 0.504691 0.544089 0.944492
671 4 0.495309 0.455911 0.444492
672 4 0.995309 0.455911 0.444492
ITEM: TIMESTEP
1000
ITEM: NUMBER OF ATOMS
672
ITEM: BOX BOUNDS xy xz yz pp pp pp
-2.7481501306466454e+00 3.2709023554302604e+01 -8.6568363743105531e-02
-2.1435959920703240e-01 1.2546715880918706e+01 6.5441436396985631e-02
-3.7745579169147803e-01 2.0394455990091458e+01 1.7835599941166266e-01
ITEM: ATOMS id type xs ys zs
1 1 0.1498 0.0912467 0.168777
2 1 0.642645 0.0672692 0.165696
3 1 0.362731 0.996603 0.652842
4 1 0.841044 0.957824 0.634605
5 1 0.395834 0.919784 0.152518
6 1 0.90728 0.941304 0.165815
7 1 0.104647 0.0418638 0.675606
8 1 0.579724 0.0568683 0.648712
9 1 0.14762 0.560359 0.184723
10 1 0.641708 0.55512 0.159457
11 1 0.350969 0.499156 0.648069
12 1 0.857057 0.422937 0.658988
13 1 0.397417 0.390823 0.150201
14 1 0.89116 0.436657 0.161852
15 1 0.110266 0.593008 0.655797
16 1 0.604012 0.579124 0.63909
17 1 0.18755 0.0606776 0.156039
18 1 0.678534 0.0372335 0.140626
19 1 0.323886 0.0147696 0.64774
20 1 0.800704 0.95404 0.624515
21 1 0.434344 0.94412 0.145108
22 1 0.946568 0.958522 0.154594
23 1 0.0685551 0.997563 0.667609
24 1 0.539977 0.0491783 0.643717
25 1 0.185078 0.540015 0.166621
26 1 0.678596 0.515992 0.143181
27 1 0.31075 0.510313 0.634317
28 1 0.818757 0.442009 0.650586
29 1 0.434443 0.432195 0.148981
30 1 0.928616 0.468705 0.162352
31 1 0.0724877 0.564954 0.641034
32 1 0.565221 0.55684 0.634808
33 1 0.210629 0.125872 0.116796
34 1 0.696248 0.109658 0.0970049
35 1 0.301869 0.935275 0.617409
36 1 0.785985 0.890287 0.575261
37 1 0.455035 0.876258 0.10401
38 1 0.966734 0.879333 0.120424
39 1 0.043262 0.0479491 0.62331
40 1 0.521874 0.123609 0.602618
41 1 0.202341 0.608763 0.120195
42 1 0.69914 0.568579 0.0933524
43 1 0.294385 0.442108 0.588836
44 1 0.799643 0.37605 0.607632
45 1 0.460827 0.388711 0.106287
46 1 0.955982 0.405699 0.12927
47 1 0.0501834 0.633918 0.60526
48 1 0.541798 0.617129 0.593391
49 1 0.196808 0.219814 0.0854635
50 1 0.679218 0.205942 0.0789524
51 1 0.31587 0.843853 0.587041
52 1 0.810482 0.830416 0.537188
53 1 0.438767 0.785066 0.0754504
54 1 0.94786 0.797706 0.0852147
55 1 0.0542214 0.136068 0.585775
56 1 0.542993 0.197272 0.565834
57 1 0.181367 0.686045 0.0859982
58 1 0.683922 0.656662 0.0605964
59 1 0.318158 0.362479 0.560916
60 1 0.817199 0.290063 0.579075
61 1 0.451179 0.298702 0.0693608
62 1 0.945415 0.313756 0.0971411
63 1 0.0660464 0.725576 0.575551
64 1 0.555919 0.706384 0.56162
65 1 0.157731 0.23991 0.092735
66 1 0.643275 0.231402 0.103722
67 1 0.355971 0.833194 0.587714
68 1 0.850125 0.832639 0.546316
69 1 0.401383 0.760229 0.0913631
70 1 0.908409 0.78818 0.0959994
71 1 0.0902731 0.176982 0.595149
72 1 0.582472 0.20902 0.575904
73 1 0.143242 0.699787 0.100011
74 1 0.647723 0.693039 0.0787895
75 1 0.356799 0.353767 0.573119
76 1 0.855115 0.267243 0.591871
77 1 0.414335 0.25719 0.0681373
78 1 0.907829 0.280309 0.0957986
79 1 0.103596 0.756665 0.588797
80 1 0.595256 0.727175 0.561586
81 1 0.135538 0.179181 0.135967
82 1 0.625296 0.162687 0.147153
83 1 0.378055 0.906777 0.621336
84 1 0.864179 0.895786 0.596794
85 1 0.378824 0.82307 0.130261
86 1 0.888302 0.853521 0.137003
87 1 0.116081 0.130995 0.63948
88 1 0.601656 0.138602 0.617253
89 1 0.127951 0.637916 0.151198
90 1 0.624816 0.641131 0.126544
91 1 0.372595 0.418645 0.622214
92 1 0.876049 0.33613 0.630204
93 1 0.388597 0.302668 0.112415
94 1 0.880551 0.340277 0.128419
95 1 0.125527 0.685343 0.626341
96 1 0.617194 0.665206 0.603094
97 1 0.121791 0.0302889 0.214686
98 1 0.62152 0.991605 0.213554
99 1 0.389042 0.070101 0.69233
100 1 0.858118 0.0217461 0.69083
101 1 0.370628 0.985425 0.198686
102 1 0.885869 0.0152572 0.21122
103 1 0.132469 0.990798 0.725152
104 1 0.603345 0.991146 0.696386
105 1 0.123452 0.485393 0.232265
106 1 0.619784 0.505992 0.218999
107 1 0.369919 0.578316 0.695591
108 1 0.878817 0.491183 0.710394
109 1 0.369022 0.450371 0.196783
110 1 0.859579 0.492839 0.201427
111 1 0.135149 0.536258 0.70736
112 1 0.629967 0.507316 0.68111
113 1 0.268658 0.212902 0.852655
114 1 0.774863 0.173346 0.84803
115 1 0.226755 0.788103 0.36407
116 1 0.72807 0.798589 0.320933
117 1 0.0127935 0.777033 0.864007
118 1 0.528781 0.772733 0.842684
119 1 0.478911 0.189034 0.35062
120 1 0.984455 0.185961 0.342057
121 1 0.261459 0.666457 0.839651
122 1 0.757215 0.675184 0.842916
123 1 0.231816 0.323871 0.35928
124 1 0.741063 0.288078 0.326826
125 1 0.0227074 0.319421 0.844988
126 1 0.525767 0.334796 0.835231
127 1 0.475145 0.742713 0.338083
128 1 0.97985 0.687236 0.352703
129 1 0.308574 0.224812 0.853553
130 1 0.815273 0.200789 0.846273
131 1 0.186953 0.790976 0.365794
132 1 0.690069 0.780527 0.337041
133 1 0.0524815 0.770408 0.875598
134 1 0.56778 0.763327 0.852421
135 1 0.439026 0.201129 0.355068
136 1 0.944572 0.187608 0.340636
137 1 0.299777 0.70075 0.843767
138 1 0.793719 0.716132 0.857255
139 1 0.192663 0.303815 0.36672
140 1 0.704893 0.248789 0.342081
141 1 0.0620847 0.302864 0.848542
142 1 0.565153 0.317133 0.839354
143 1 0.436507 0.75554 0.348377
144 1 0.940994 0.708254 0.353645
145 1 0.327911 0.150205 0.891164
146 1 0.837661 0.142323 0.887136
147 1 0.168215 0.865243 0.405893
148 1 0.673892 0.846128 0.383478
149 1 0.0679073 0.84456 0.920752
150 1 0.587836 0.835296 0.892295
151 1 0.41834 0.13453 0.394448
152 1 0.922035 0.105524 0.368723
153 1 0.325522 0.640445 0.879249
154 1 0.818524 0.650421 0.890748
155 1 0.168306 0.368873 0.403028
156 1 0.684903 0.316771 0.384418
157 1 0.0825934 0.361867 0.893379
158 1 0.58494 0.372 0.889258
159 1 0.416502 0.681834 0.38749
160 1 0.917168 0.631131 0.384669
161 1 0.310728 0.0621784 0.923849
162 1 0.823121 0.0593381 0.929797
163 1 0.191043 0.939489 0.439598
164 1 0.692415 0.930159 0.412421
165 1 0.0469389 0.931354 0.945846
166 1 0.566466 0.913119 0.926438
167 1 0.437407 0.0484776 0.42458
168 1 0.941621 0.02214 0.399111
169 1 0.313854 0.550109 0.916401
170 1 0.808557 0.547686 0.913035
171 1 0.184004 0.456626 0.434388
172 1 0.699189 0.411089 0.41087
173 1 0.0661387 0.445914 0.929154
174 1 0.567026 0.447114 0.928398
175 1 0.43606 0.60073 0.418604
176 1 0.931932 0.54067 0.415461
177 1 0.270384 0.0580227 0.924305
178 1 0.78447 0.0400709 0.928273
179 1 0.22994 0.940782 0.434369
180 1 0.730641 0.948077 0.394567
181 1 0.00757826 0.93848 0.929987
182 1 0.526724 0.916092 0.922712
183 1 0.476978 0.0372355 0.426595
184 1 0.981318 0.0225958 0.403588
185 1 0.275341 0.522313 0.91749
186 1 0.771368 0.513025 0.901444
187 1 0.222861 0.48078 0.425174
188 1 0.737476 0.44168 0.395178
189 1 0.026982 0.461812 0.922298
190 1 0.52796 0.460569 0.923345
191 1 0.475852 0.591599 0.413129
192 1 0.971489 0.52488 0.416049
193 1 0.250181 0.137144 0.892043
194 1 0.7582 0.101502 0.889506
195 1 0.248688 0.866136 0.395337
196 1 0.748909 0.883777 0.348929
197 1 0.507942 0.845859 0.880527
198 1 0.991597 0.861531 0.889455
199 1 0.00318489 0.105169 0.375974
200 1 0.496577 0.110204 0.387142
201 1 0.248896 0.583008 0.882575
202 1 0.746397 0.570132 0.861372
203 1 0.247301 0.41468 0.388003
204 1 0.757549 0.382841 0.347754
205 1 0.507133 0.406061 0.876708
206 1 0.0043976 0.395833 0.881945
207 1 0.995572 0.599622 0.385672
208 1 0.494969 0.660913 0.370966
209 1 0.246977 0.282943 0.804609
210 1 0.747294 0.237675 0.803661
211 1 0.242832 0.70368 0.315389
212 1 0.745099 0.733598 0.265262
213 1 0.505358 0.69167 0.801374
214 1 0.991704 0.700102 0.81611
215 1 0.00676409 0.264939 0.298162
216 1 0.498677 0.270563 0.303635
217 1 0.23207 0.726076 0.795742
218 1 0.728215 0.745485 0.806246
219 1 0.259818 0.251776 0.321866
220 1 0.76707 0.237061 0.272423
221 1 0.502359 0.262679 0.788559
222 1 0.000511682 0.267534 0.787223
223 1 0.00800279 0.764883 0.318687
224 1 0.50018 0.821372 0.2994