LAMMPS data file via write_data, version 15 Apr 2020, timestep = 80000

672 atoms
4 atom types

-2.3761511248864426e+00 3.2358151476162028e+01 xlo xhi
-2.7570672983920215e+00 1.4911067580692322e+01 ylo yhi
2.6682375485708123e+00 1.7348762649829254e+01 zlo zhi
4.1012260357213316e-02 2.3880261011042858e+00 -5.3509047480720229e-01 xy xz yz

Masses

1 12.0107
2 14.0067
3 15.9994
4 1.00794

Atoms # full

1 1 1 5.5752119936911190e-02 2.7636359929078238e+00 -2.0126901007092348e+00 4.2823136213456863e+00 0 0 0
2 1 1 4.9484232232837849e-02 2.0344296259631285e+01 -2.0464857992274146e+00 4.8301481804200099e+00 0 0 0
3 1 1 4.4295229794725506e-02 1.1870129383619046e+01 1.3572490262138741e+01 1.1810204712449412e+01 0 0 0
4 1 1 4.8503271704874867e-02 2.9890578899114224e+01 1.3568841085233563e+01 1.2102052217954739e+01 0 0 0
5 1 1 4.0963156141702581e-02 1.1114071589387297e+01 1.3935260394271532e+01 4.6636317522572224e+00 0 0 0
7 1 1 3.4401151310844313e-02 3.1850836987073885e+00 -2.7318784365835560e+00 1.1253143751525528e+01 0 0 0
8 1 1 5.0540901244707274e-02 2.1380038144765056e+01 -2.4371636158239234e+00 1.2325150293529603e+01 0 0 0
9 1 1 4.3240433233978845e-02 2.2125073058734315e+00 7.3967268048339676e+00 4.6516271315798114e+00 0 0 0
10 1 1 3.7103181702916932e-02 2.0193409916322228e+01 6.7449391521762703e+00 4.9729637413575958e+00 0 0 0
11 1 1 3.4233255050025953e-02 1.1922576724573336e+01 4.8890077866658599e+00 1.2223764338189444e+01 0 0 0
13 1 1 5.1923511634726832e-02 1.1029965589335250e+01 5.0179134752282497e+00 4.8088385500779474e+00 0 0 0
15 1 1 3.3929391611960465e-02 3.6678170976409437e+00 6.5917192492791319e+00 1.1777158404350921e+01 0 0 0
16 1 1 3.3223706300627778e-02 2.0846676324247127e+01 6.0168511057829921e+00 1.2460442304299228e+01 0 0 0
17 1 1 1.0777519295813126e-01 4.0521011566698002e+00 -2.5655250569084198e+00 4.4427478172387422e+00 0 0 0
18 1 1 1.1058695507745005e-01 2.1544136806594633e+01 -2.7144259101290018e+00 5.1694266933559145e+00 0 0 0
19 1 1 1.2519179033736488e-01 1.0687229168312122e+01 1.4301270934223259e+01 1.1727373315318928e+01 0 0 0
20 1 1 1.1252008710427297e-01 2.8760425334481262e+01 1.4458821016865288e+01 1.2219325784253474e+01 0 0 0
21 1 1 1.1221612493244604e-01 1.2026747067906308e+01 -2.6756671843595261e+00 4.8911128141720450e+00 0 1 0
23 1 1 1.0276541122823023e-01 1.9574307813542355e+00 1.4349644526008733e+01 1.1335650740118869e+01 0 -1 0
24 1 1 1.1492246495242359e-01 2.0227385707012548e+01 1.4447859854304683e+01 1.2286397632451063e+01 0 -1 0
25 1 1 1.2049716785561110e-01 3.1726455568630110e+00 6.3964226731445297e+00 4.7655094417447668e+00 0 0 0
26 1 1 1.1443084538119866e-01 2.1526891613324175e+01 6.3271225382913272e+00 4.8047180716725606e+00 0 0 0
27 1 1 1.1993493725811183e-01 1.0684012868369624e+01 5.5853815108331357e+00 1.2234697259216180e+01 0 0 0
29 1 1 1.1119730377351544e-01 1.2169122446018351e+01 5.8293023165845597e+00 5.0028842292796618e+00 0 0 0
31 1 1 1.1408183955638290e-01 2.4879199694455196e+00 5.7979432345651389e+00 1.1913147599939716e+01 0 0 0
32 1 1 1.0616456560986476e-01 1.9677139416952873e+01 5.3281432882665385e+00 1.2290789322554879e+01 0 0 0
33 1 1 -1.0332571431337925e-01 5.1391486240881221e+00 -1.6614768673908134e+00 4.4423981708444682e+00 0 0 0
34 1 1 -1.2444926750499440e-01 2.2751675581193961e+01 -2.0203021759195785e+00 4.9844055382047632e+00 0 0 0
35 1 1 -1.1072938702389570e-01 9.4758093319931884e+00 1.3631256775238056e+01 1.1558119678138393e+01 0 0 0
36 1 1 -1.1683613595097746e-01 2.7476181168611753e+01 1.3915201611579180e+01 1.2077403806700726e+01 0 0 0
37 1 1 -1.2339163355651490e-01 1.3436444910099331e+01 1.4683514028982438e+01 4.8231057875134624e+00 0 0 0
39 1 1 -9.5966447922221337e-02 7.7084248934790978e-01 -2.5415566202729476e+00 1.1071990469020815e+01 0 0 0
40 1 1 -1.1196790165249593e-01 1.8975271618816741e+01 -2.5274528978536455e+00 1.1920981710552113e+01 0 0 0
41 1 1 -1.1061350525606413e-01 4.5078145914339771e+00 6.8622881146945804e+00 4.7555513065254793e+00 0 0 0
42 1 1 -1.2144821098254897e-01 2.2484662175794554e+01 7.3793315123247680e+00 4.5759670972663615e+00 0 0 0
43 1 1 -1.1283050520753762e-01 9.5575545373111339e+00 4.7832699540438579e+00 1.1933888463974810e+01 0 0 0
45 1 1 -1.1845987243584302e-01 1.3439960957632104e+01 5.2483204375782950e+00 5.1427741466003667e+00 0 0 0
47 1 1 -1.0026345488609720e-01 1.2543963180340141e+00 6.4288999493512566e+00 1.1653095209244217e+01 0 0 0
48 1 1 -1.1802574919356304e-01 1.8481429203108902e+01 5.9375862330414044e+00 1.1868123369057759e+01 0 0 0
49 1 1 1.2779723520489245e-01 4.9931712958223260e+00 -2.7323578525995229e-01 4.2005061728187609e+00 0 0 0
50 1 1 1.2826778761957727e-01 2.2708472209895000e+01 -6.8139931935603615e-01 4.5880155030591530e+00 0 0 0
51 1 1 1.5140161247968842e-01 9.3805221603347917e+00 1.2203670719551543e+01 1.1617050205044976e+01 0 0 0
52 1 1 1.4868874280091274e-01 2.7262593741270820e+01 1.2549514469630749e+01 1.1811869006417968e+01 0 0 0
53 1 1 1.3442794035619299e-01 1.3883256308207862e+01 1.3363967379290786e+01 4.5449506018063026e+00 0 0 0
55 1 1 1.3563011120279084e-01 8.9673670656004068e-01 -1.2098109276374149e+00 1.0656595996379810e+01 0 0 0
56 1 1 1.4775139774955409e-01 1.8974024868487010e+01 -1.1359644447086159e+00 1.1644686827348590e+01 0 0 0
57 1 1 1.3296583596009623e-01 5.0010936793922056e+00 8.1755384118057837e+00 4.6208934833681736e+00 0 0 0
58 1 1 1.3014660282936416e-01 2.2048573577166795e+01 8.6891561275697224e+00 4.2758142497746876e+00 0 0 0
59 1 1 1.4059309370026518e-01 9.5750653777555659e+00 3.3886197539789196e+00 1.1771323639812554e+01 0 0 0
61 1 1 1.4180900320540563e-01 1.3574442871968937e+01 3.8942584094170538e+00 4.9042793676603234e+00 0 0 0
63 1 1 1.3604163673589151e-01 1.2449152650891231e+00 7.8416317788963124e+00 1.1373315172743727e+01 0 0 0
64 1 1 1.4901152878715421e-01 1.8385946676289365e+01 7.3126803339956794e+00 1.1746357619602119e+01 0 0 0
65 1 1 -1.2382285849854061e-01 3.6946541718973829e+00 2.2487023288764885e-01 4.0289472091707488e+00 0 0 0
66 1 1 -1.2755472169631754e-01 2.1509930386627481e+01 2.7763015944635150e-03 4.2640302237712016e+00 0 0 0
67 1 1 -1.2858056173890872e-01 1.0616636240502014e+01 1.1526970487976252e+01 1.1509583022265893e+01 0 0 0
68 1 1 -1.2744623363646901e-01 2.8399104132554971e+01 1.1710857490958499e+01 1.1697452950929431e+01 0 0 0
69 1 1 -1.1418938754730466e-01 1.2906340380781321e+01 1.2440100593563043e+01 4.1387248450400040e+00 0 0 0
71 1 1 -1.1693095586515051e-01 2.1927685876893390e+00 -6.3628681509511642e-01 1.0730444658506304e+01 0 0 0
72 1 1 -1.2266166352761296e-01 2.0171638026098606e+01 -4.1007262771488628e-01 1.1709111222265779e+01 0 0 0
73 1 1 -1.2026119946494213e-01 3.9725637643235112e+00 9.1092136680215106e+00 4.4243569301819283e+00 0 0 0
74 1 1 -1.2180077112280749e-01 2.0691382902546906e+01 9.0188165331293462e+00 4.2336102642047706e+00 0 0 0
75 1 1 -1.3329213683440916e-01 1.0842353759358938e+01 2.7248611877807933e+00 1.1868654039758173e+01 0 0 0
77 1 1 -1.2321092062868658e-01 1.2436512811261705e+01 3.0958771800317821e+00 4.6089665426220661e+00 0 0 0
79 1 1 -1.3194777054452553e-01 2.3982334188065648e+00 8.6338979394722255e+00 1.1301729838981533e+01 0 0 0
80 1 1 -1.2610967744701537e-01 1.9561832044878582e+01 7.9914207370710031e+00 1.2102408399749386e+01 0 0 0
81 1 1 1.1443255432211979e-01 2.5632671841735473e+00 -6.1133009986537035e-01 4.0707888523517983e+00 0 0 0
82 1 1 1.3679448999087174e-01 2.0306734041482223e+01 -7.3324684299384479e-01 4.3053435770930655e+00 0 0 0
83 1 1 1.2494935640706192e-01 1.1831531130377373e+01 1.2190649775352792e+01 1.1602410087604234e+01 0 0 0
85 1 1 1.2527145005081530e-01 1.1525422923467030e+01 1.2682820336357979e+01 4.1785092640577721e+00 0 0 0
87 1 1 1.2551409509609929e-01 3.3302295714961114e+00 -1.3231982923818948e+00 1.1171517386861566e+01 0 0 0
88 1 1 1.2467483475479435e-01 2.1356151028563428e+01 -1.0768300939398359e+00 1.2041963044571094e+01 0 0 0
89 1 1 1.1031432597262249e-01 2.6094385463700478e+00 8.7244433907280392e+00 4.4651448219329977e+00 0 0 0
90 1 1 1.1963628089895682e-01 1.9761466407129728e+01 8.0259851555782209e+00 4.6514374928216995e+00 0 0 0
91 1 1 1.0886659995750919e-01 1.2007030216104134e+01 3.4923958294602020e+00 1.1984158073580495e+01 0 0 0
93 1 1 1.1721606418055983e-01 1.1141180163604858e+01 3.6449296410994334e+00 4.5863021840633120e+00 0 0 0
95 1 1 1.1790530990158209e-01 3.5986512710935892e+00 7.9984863575992193e+00 1.1584022454564995e+01 0 0 0
96 1 1 1.2596819202791326e-01 2.0809973760609523e+01 7.4426525369623722e+00 1.2401996961519909e+01 0 0 0
97 1 1 -3.8086456818743064e-01 1.6335017886419028e+00 1.4660399951493028e+01 4.2120160335006691e+00 0 0 0
98 1 1 -3.9046958774936186e-01 1.8981808409467522e+01 -2.6927070811123586e+00 5.2291184775393056e+00 0 1 0
99 1 1 -3.2672570431566955e-01 1.3267259057918253e+01 1.4283818888349598e+01 1.2028915776032939e+01 0 -1 0
101 1 1 -3.1447772090381465e-01 9.5845455630885255e+00 1.4093770420215543e+01 4.8434350488068114e+00 0 -1 0
103 1 1 -3.6979751579837600e-01 4.4996859672095546e+00 1.4068646608905050e+01 1.1539495809407526e+01 0 0 0
104 1 1 -3.4799239829173945e-01 2.2758919360037837e+01 -3.0815593829350973e+00 1.2652526927447401e+01 0 1 0
105 1 1 -3.1269763116842819e-01 6.7284356754190133e-01 7.1304734725550194e+00 4.7601022485546896e+00 0 0 0
106 1 1 -3.4672428498589303e-01 1.9102335454793177e+01 5.6393022961636934e+00 5.2649007946340305e+00 0 0 0
107 1 1 -3.5404009203909498e-01 1.3261256371393802e+01 5.6270546758110793e+00 1.2514052391591662e+01 0 0 0
109 1 1 -3.8742783662026359e-01 9.5895218081671949e+00 5.6031832205434302e+00 4.7907765184830682e+00 0 0 0
111 1 1 -3.5938432070890775e-01 5.0372162927114026e+00 5.8549224988739734e+00 1.1900550630593216e+01 0 0 0
112 1 1 -3.9603118471687065e-01 2.2209546638500250e+01 5.2140475664116055e+00 1.2785191747919530e+01 0 0 0
113 1 1 4.0967133936148190e-02 9.1993133434864589e+00 6.6078075273075498e-01 1.5075007539069109e+01 0 0 0
114 1 1 3.8287967214596409e-02 2.6746030055775194e+01 1.9051432271748681e-01 1.5174049706061687e+01 0 0 0
115 1 1 3.1746336920201568e-02 5.3842831658164911e+00 1.0306286181001338e+01 7.8393498585393928e+00 0 0 0
116 1 1 3.6896807751863339e-02 2.3439360099832722e+01 1.0669684511442906e+01 8.3503212247964775e+00 0 0 0
117 1 1 3.2053045023856933e-02 9.1361520738915702e-01 1.1090740769066512e+01 1.4990569381492371e+01 0 0 0
118 1 1 3.2265819200958043e-02 1.7967308826704304e+01 1.1060160417998670e+01 1.5483341396560871e+01 0 0 0
119 1 1 4.7753992135180084e-02 1.3951846720424454e+01 4.5215847315862101e-01 8.4095273200308291e+00 0 0 0
121 1 1 4.0969309934001712e-02 9.6885419366024230e+00 1.0075036170042319e+01 1.5515300385010129e+01 0 0 0
122 1 1 4.5355022720317856e-02 2.6814575470453644e+01 9.3386158973573679e+00 1.5402098495937107e+01 0 0 0
123 1 1 4.3847887945661641e-02 5.5869436131640908e+00 1.9716304179430839e+00 8.0417959795828686e+00 0 0 0
124 1 1 4.0083876157735572e-02 2.3742890176095578e+01 2.4869258449167058e+00 8.1056897696455827e+00 0 0 0
125 1 1 4.1800001579985875e-02 6.8929888425498875e-01 1.9872494760078050e+00 1.4973683119613170e+01 0 0 0
126 1 1 3.2006704978653225e-02 1.8776238056408140e+01 1.6850952089949844e+00 1.5589417435116051e+01 0 0 0
127 1 1 4.0072161384903576e-02 1.4192201397366855e+01 9.2865562514143853e+00 7.9798913991265348e+00 0 0 0
129 1 1 9.9362795811034715e-02 1.0126291939779932e+01 1.7104848000992181e+00 1.5105352374663159e+01 0 0 0
131 1 1 9.1963860571585815e-02 4.1223422664798957e+00 9.6333149245573964e+00 7.8472894675048455e+00 0 0 0
132 1 1 1.1265783012628408e-01 2.2052788508140083e+01 1.0589565850648766e+01 8.5737878362862077e+00 0 0 0
133 1 1 1.1553863481398906e-01 2.0541760053411995e+00 1.0269239490655261e+01 1.4884558773767868e+01 0 0 0
134 1 1 1.1064946116095503e-01 1.9082795286691372e+01 1.0227033434001449e+01 1.5521323462609462e+01 0 0 0
135 1 1 1.0607527968134189e-01 1.2752347460919317e+01 1.2011465302727413e+00 8.4020030855057435e+00 0 0 0
137 1 1 1.1209809153043995e-01 1.1075688165316146e+01 1.0306132353814345e+01 1.5184998506454690e+01 0 0 0
138 1 1 1.1459080666361585e-01 2.7946100684714551e+01 1.0172649924151200e+01 1.5571924455463670e+01 0 0 0
139 1 1 1.0927871904570295e-01 4.3688619032266196e+00 1.2537933049357148e+00 7.8911324256063766e+00 0 0 0
140 1 1 1.1197741179264535e-01 2.3577215060093842e+01 1.0962323169365571e+00 8.0287893503403165e+00 0 0 0
141 1 1 1.0245743159505585e-01 1.9069800646224651e+00 1.2940760650882632e+00 1.4894389585051123e+01 0 0 0
142 1 1 1.1654365148238414e-01 2.0082189827976116e+01 1.1057957713225126e+00 1.5454476913026426e+01 0 0 0
143 1 1 1.1444126185814370e-01 1.2934059800115991e+01 9.9203117637607363e+00 7.9967452244147683e+00 0 0 0
145 1 1 -1.2578520089438130e-01 1.1492250866701198e+01 1.4083719559393097e+00 1.5055507364864134e+01 0 0 0
147 1 1 -1.2603090585807275e-01 2.9446934272443279e+00 1.0412576847392289e+01 7.8118031396210119e+00 0 0 0
148 1 1 -1.2802298752070379e-01 2.1374191722844003e+01 1.1791635454893809e+01 8.8900095645605575e+00 0 0 0
149 1 1 -1.3465499578437690e-01 3.3119646670567047e+00 1.0894790692785261e+01 1.4858896099006497e+01 0 0 0
150 1 1 -1.0244866520933940e-01 2.0363706844231118e+01 1.0741508876219475e+01 1.5879518092849931e+01 0 0 0
151 1 1 -1.1175023703897137e-01 1.1562634580290814e+01 4.2689586947464608e-01 8.6020365592447412e+00 0 0 0
153 1 1 -9.4767966206740772e-02 1.2045003013262894e+01 9.3260470683987382e+00 1.5380875001734001e+01 0 0 0
154 1 1 -1.0319638167684106e-01 2.9206488278125125e+01 9.6158177312836646e+00 1.5838840466391638e+01 0 0 0
155 1 1 -1.3722914504153375e-01 3.1751068714132873e+00 1.9801051666293263e+00 8.0631665158659782e+00 0 0 0
156 1 1 -1.2987235333773001e-01 2.2289633622704354e+01 5.8183562564272551e-01 7.8498904052744694e+00 0 0 0
157 1 1 -1.1189472105785317e-01 3.0617831442935337e+00 2.0451061189009110e+00 1.5160428730623025e+01 0 0 0
158 1 1 -1.0898156262044670e-01 2.1212127927289288e+01 1.9058926693040545e+00 1.5593346200263554e+01 0 0 0
159 1 1 -1.0329343612211594e-01 1.1762256925237930e+01 9.1205784457434227e+00 8.0830100340016351e+00 0 0 0
161 1 1 1.6201580519526124e-01 1.1916660477675869e+01 5.4062125418004481e-02 1.5144521455404071e+01 0 0 0
162 1 1 1.5664752576869817e-01 2.9258506821336468e+01 -6.5504005428199719e-01 1.5631038679516127e+01 0 0 0
163 1 1 1.4280497882610677e-01 2.9966802459445079e+00 1.1840284747054712e+01 7.9441769946230707e+00 0 0 0
164 1 1 1.4067835403845641e-01 2.2110246822425594e+01 1.2997893311292406e+01 8.9388244813963240e+00 0 0 0
165 1 1 1.3814995841367414e-01 3.3526465080289030e+00 1.2300600708848126e+01 1.5070448992490316e+01 0 0 0
166 1 1 1.3955804182185783e-01 2.0526433697297833e+01 1.2136476928946228e+01 1.6001507404795035e+01 0 0 0
167 1 1 1.4852419586311510e-01 1.1631751587771044e+01 -9.8256365835785386e-01 8.6916808066487565e+00 0 0 0
169 1 1 1.4921829308828860e-01 1.1653901471010213e+01 8.1189553742693601e+00 1.5979860745742016e+01 0 0 0
170 1 1 1.4485878440483785e-01 2.9341947885290210e+01 8.2514164593527823e+00 1.6212902671793469e+01 0 0 0
171 1 1 1.4623099912021709e-01 3.2546475577171172e+00 3.3023869842441025e+00 8.4872222237196056e+00 0 0 0
172 1 1 1.2895085363691394e-01 2.1179967466746973e+01 1.4507277460899060e+00 7.7948666431164400e+00 0 0 0
173 1 1 1.3684196421532135e-01 3.0299302616907910e+00 3.4077482549789631e+00 1.5472617478566910e+01 0 0 0
174 1 1 1.2880033436698929e-01 2.1079927264921327e+01 3.2825236149601649e+00 1.5881666474277722e+01 0 0 0
175 1 1 1.3548894199628270e-01 1.1885359739929189e+01 7.7380782585217887e+00 8.2564805608450023e+00 0 0 0
177 1 1 -1.1701578874067167e-01 1.0967287115909500e+01 -9.2636783621130125e-01 1.5260228097669646e+01 0 0 0
178 1 1 -1.3497736295024948e-01 2.8184663582993299e+01 -1.5956097083722929e+00 1.5737867304847857e+01 0 0 0
179 1 1 -1.2248233401977404e-01 4.2716901712333550e+00 1.2409020938614594e+01 8.1241961352616645e+00 0 0 0
180 1 1 -1.3519130486840861e-01 2.3501087587093586e+01 1.3017979957188487e+01 8.6891258489243839e+00 0 0 0
181 1 1 -1.2581791909717602e-01 2.2163252915779310e+00 1.3075546930313344e+01 1.5281384129466510e+01 0 0 0
182 1 1 -1.3380244526998888e-01 1.9407164990901855e+01 1.2961537746499292e+01 1.5884275568678525e+01 0 0 0
183 1 1 -1.4600892317397268e-01 1.2854330050231766e+01 -1.6646247563390535e+00 8.6892053788351706e+00 0 0 0
185 1 1 -1.2115782294275400e-01 1.0312808287685716e+01 7.7589797245328960e+00 1.6192818556745451e+01 0 0 0
186 1 1 -9.5082593866763279e-02 2.8201031909381001e+01 7.4443269167008008e+00 1.6200662653656135e+01 0 0 0
187 1 1 -1.3603807645670499e-01 4.4486589226376001e+00 4.0239028241134234e+00 8.5427198053408375e+00 0 0 0
188 1 1 -1.0679061923733396e-01 2.1377173444682480e+01 2.8209032388929360e+00 8.0681663180148391e+00 0 0 0
189 1 1 -1.3974946911218802e-01 1.7799494106453349e+00 4.1041515311909125e+00 1.5475065827402251e+01 0 0 0
190 1 1 -1.3055672562992013e-01 1.9813857807598865e+01 3.8731897754019329e+00 1.6000977420016678e+01 0 0 0
191 1 1 -1.4198379883936846e-01 1.3143360560416616e+01 7.1205276861949827e+00 8.1980039991128493e+00 0 0 0
193 1 1 1.1600232636435116e-01 9.5798278055188621e+00 -6.9535515845904960e-01 1.5265814095266034e+01 0 0 0
194 1 1 1.1003648756874601e-01 2.6899351030064494e+01 -1.1028700096262800e+00 1.5752015848999918e+01 0 0 0
195 1 1 1.1187362322786502e-01 5.4734452370345821e+00 1.1699828425413523e+01 7.9864690828369005e+00 0 0 0
196 1 1 1.2863381820883418e-01 2.4224495126915002e+01 1.1808841240002346e+01 8.4719626167936219e+00 0 0 0
197 1 1 1.0872979903043856e-01 1.8082899684012421e+01 1.2463281389824260e+01 1.5714769522667556e+01 0 0 0
198 1 1 1.2723852992810133e-01 9.2124325984016142e-01 1.2491849304185298e+01 1.5202612878383242e+01 1 0 0
200 1 1 1.1636797728982276e-01 1.4043587055041794e+01 -9.7467603884552023e-01 8.3672460569242091e+00 0 0 0
201 1 1 1.2944859050011157e-01 9.3192255947374889e+00 8.7573011167231591e+00 1.5858979334676995e+01 0 0 0
202 1 1 1.2126285983220535e-01 2.6960521891181301e+01 7.9684621220702194e+00 1.5727570031752922e+01 0 0 0
203 1 1 1.0668887406271282e-01 5.6370393691130456e+00 3.3362978910744649e+00 8.3978713495985851e+00 0 0 0
204 1 1 1.1144321666097977e-01 2.2663439015370390e+01 3.3457724260401518e+00 8.3370412209670022e+00 0 0 0
205 1 1 1.0939597974271303e-01 1.8624875458329324e+01 3.0945528134425473e+00 1.5833211215655290e+01 0 0 0
206 1 1 1.1420923574727093e-01 6.3584442364316274e-01 3.3629506941954972e+00 1.5278442949953075e+01 1 0 0
208 1 1 1.1754453586995103e-01 1.4301641172128308e+01 7.8734747493301622e+00 8.0365826580130211e+00 0 0 0
209 1 1 -3.8530956452357529e-01 7.6556057445545234e+00 9.8965538314013868e-01 1.4934444973361536e+01 0 0 0
210 1 1 -3.5452211987492882e-01 2.5310442364099931e+01 5.8450205146542844e-01 1.4776167651156381e+01 0 0 0
211 1 1 -3.4920929383635330e-01 6.6658351846701720e+00 9.4487346981519700e+00 7.8648718506999717e+00 0 0 0
212 1 1 -3.6554079188228017e-01 2.4090107225394728e+01 9.2623553784564976e+00 8.1458473028226379e+00 0 0 0
213 1 1 -3.4644508056012419e-01 1.6581208940834866e+01 1.0369627622702280e+01 1.5174807983729007e+01 0 0 0
214 1 1 -3.9356365332069970e-01 3.4255885217951025e+01 1.0406059206906333e+01 1.4822170298324501e+01 0 0 0
216 1 1 -3.8616668135087984e-01 1.5289232134069502e+01 1.2483617735150201e+00 8.3946570489121086e+00 0 0 0
217 1 1 -3.4733757967295603e-01 8.6952758544922588e+00 1.1281308028988910e+01 1.5490009809545587e+01 0 0 0
218 1 1 -3.3796217533891038e-01 2.5538638499712075e+01 1.0050989786260766e+01 1.4903590067272592e+01 0 0 0
219 1 1 -3.7408955571042229e-01 6.9329664726289622e+00 1.3528101401107673e+00 7.6469241135578105e+00 0 0 0
220 1 1 -3.4081058334113590e-01 2.5226245126173950e+01 3.0464934068864906e+00 8.0776530137031735e+00 0 0 0
221 1 1 -3.6473342588111518e-01 1.7497245106650723e+01 7.9036008683206616e-01 1.5393392377377925e+01 0 0 0
223 1 1 -3.6340393268811788e-01 3.2931452060943840e+01 9.2796620704332895e+00 7.4460477419723947e+00 -1 0 0
224 1 1 -3.7509394891619785e-01 1.5490716784814428e+01 1.0136802725285923e+01 7.9298706019791609e+00 0 0 0
225 1 2 -1.1245061679898263e-02 4.4972548805740571e+00 1.3575013757970664e+01 4.7127016031641844e+00 0 0 0
226 1 2 -9.4035223809657148e-03 2.1723235266150034e+01 1.3486722091433338e+01 5.7759127010159101e+00 0 0 0
227 1 2 -1.9387814193432898e-03 1.0650401251893431e+01 -1.7839485909373218e+00 1.1833741585706271e+01 0 0 0
228 1 2 -2.2658896907413122e-02 2.8722477330375593e+01 -1.6971543019401487e+00 1.2422345773837730e+01 0 0 0
229 1 2 -1.1416454547226822e-02 1.1643484823514207e+01 -1.2108556321220680e+00 5.2790610012119288e+00 0 0 0
231 1 2 -1.2226176522610127e-02 1.5889709589873231e+00 1.2854262757385820e+01 1.1599823579616434e+01 0 0 0
232 1 2 -2.2126765053119935e-02 2.0125078305544957e+01 1.2934690996860038e+01 1.2570955347450504e+01 0 0 0
233 1 2 -4.5118661970017550e-03 2.8783647698467836e+00 4.8748550759737856e+00 4.9185840345621230e+00 0 0 0
234 1 2 -2.1998765984878460e-05 2.2043724432029993e+01 4.8561905868730211e+00 4.8146405003686734e+00 0 0 0
235 1 2 -1.0073121468292288e-02 1.0612802655109171e+01 7.1327183618549892e+00 1.2603568221480135e+01 0 0 0
237 1 2 -1.3714251970741186e-02 1.2241642224435836e+01 7.3960883240603668e+00 5.1526341387378469e+00 0 0 0
239 1 2 -9.1605506306912145e-03 2.3362955007355048e+00 4.2574852116211295e+00 1.2237814991140922e+01 0 0 0
240 1 2 -1.8191366974373464e-02 1.9453471189614703e+01 3.7602009730403250e+00 1.2373067826707789e+01 0 0 0
241 1 2 -4.3233366116207164e-02 6.2302494527569303e+00 6.6037845120598737e-01 4.1814212916783609e+00 0 0 0
242 1 2 -2.8832047400618087e-02 2.3962456091751452e+01 1.8218343292943739e-01 4.3891016303583337e+00 0 0 0
243 1 2 -2.0845103043481597e-02 7.9931208779901040e+00 1.1522018189233853e+01 1.1584171655945841e+01 0 0 0
244 1 2 -2.0295783341893619e-02 2.5801007436680639e+01 1.2022253365925415e+01 1.1632746547669413e+01 0 0 0
245 1 2 -1.6309213754377126e-02 1.5416786009111171e+01 1.2925779216587729e+01 4.6372382866268147e+00 0 0 0
247 1 2 -1.3023743876596428e-02 -4.1058350960565027e-01 -4.2095512819773528e-01 1.0251867377153559e+01 0 0 0
248 1 2 -1.2158797417894215e-02 1.7621061933206562e+01 -3.9669170281923583e-01 1.1288673982297741e+01 0 0 0
249 1 2 -1.9815461059903089e-02 6.5658346017851024e+00 8.5472629409564362e+00 4.5772915184192140e+00 0 0 0
250 1 2 -1.7666792135905596e-02 2.3141332900992193e+01 9.6894541910417651e+00 3.7464603066331801e+00 0 0 0
251 1 2 -2.1927088340455890e-02 8.2449491900779002e+00 2.6169594118934727e+00 1.1561252521301963e+01 0 0 0
253 1 2 -1.8405877984608163e-02 1.5091878326029693e+01 3.3701629030944193e+00 5.0758086258402511e+00 0 0 0
255 1 2 -1.2827905102794752e-02 -1.2628139920031034e-01 8.6686799036333220e+00 1.1148024606365663e+01 0 0 0
256 1 2 -6.2990501393490328e-03 1.7094733898365760e+01 8.1464146728984161e+00 1.1351800867568347e+01 0 0 0
257 1 2 1.1917267367886272e-03 1.1689637675602702e+00 5.3895917232825497e-02 3.6820066561362115e+00 0 0 0
258 1 2 -1.3902896457469484e-03 1.9067805191453530e+01 8.0116646525101753e-02 3.9385201143057276e+00 0 0 0
259 1 2 -3.9586781130681349e-03 1.3104508906530604e+01 1.1200978840385055e+01 1.1554695523654615e+01 0 0 0
261 1 2 -1.6089442073483388e-02 1.0594818591229888e+01 1.1574910996590148e+01 3.6905198699851303e+00 0 0 0
263 1 2 -7.9002435153627155e-03 4.6809355707247606e+00 -5.6863334400105625e-01 1.1328633899498591e+01 0 0 0
264 1 2 2.5265639910264717e-04 2.2694958277121270e+01 -2.1821390888622494e-01 1.2152659801209371e+01 0 0 0
265 1 2 -6.9040530565090165e-03 1.4850952522593599e+00 9.8984120851393076e+00 4.2804151080641448e+00 0 0 0
266 1 2 -1.5840387952964011e-03 1.8291471193015457e+01 8.5448482232522593e+00 4.7481874874927215e+00 0 0 0
267 1 2 -1.6891123081556911e-02 1.3378948241732607e+01 2.6896356797381014e+00 1.2056615170831019e+01 0 0 0
269 1 2 -9.4944493609678375e-03 9.9884623566458153e+00 2.6139788033591920e+00 4.2403286895083028e+00 0 0 0
271 1 2 -2.3013521525692544e-02 4.8063810832753360e+00 8.9319566434598379e+00 1.1429006498757857e+01 0 0 0
272 1 2 -1.7454449801799762e-02 2.1982439446649398e+01 8.3875586419001831e+00 1.2687760624397892e+01 0 0 0
273 1 2 -2.3070947728265980e-02 9.9081717859571938e+00 3.2765413015814167e+00 1.5185793966899734e+01 0 0 0
275 1 2 -2.8561346181788305e-02 3.9636817893567611e+00 8.0829236879043425e+00 7.8402557685775829e+00 0 0 0
276 1 2 -2.1169280890884615e-02 2.1181361464164148e+01 9.3196953805823135e+00 8.4617490629104815e+00 0 0 0
277 1 2 -2.0274559271585873e-02 1.9440028928310509e+00 8.7195888946365194e+00 1.4688823377033930e+01 0 0 0
278 1 2 -1.5374784176091057e-02 1.9005603411501255e+01 8.6581504614192397e+00 1.5231845499635696e+01 0 0 0
279 1 2 -2.0631282383381976e-02 1.2566471729968880e+01 2.7325679896320461e+00 8.2655247928043813e+00 0 0 0
281 1 2 -1.8516680862608995e-02 1.1630590077612183e+01 1.1606026545414956e+01 1.4559455644107274e+01 0 0 0
282 1 2 -9.2803882071515846e-03 2.7950053913179726e+01 1.1743712315819257e+01 1.5339121406057519e+01 0 0 0
283 1 2 -1.9138717249827370e-02 4.2920532257712818e+00 -2.8212055384366996e-01 7.6194806167703772e+00 0 0 0
284 1 2 3.0499316021787258e-03 2.4787769541626986e+01 6.1462028231398680e-02 8.0418011280899115e+00 0 0 0
285 1 2 -9.0322532062968586e-03 2.1289818799897593e+00 -2.8680668039872526e-01 1.4684454483686139e+01 0 0 0
286 1 2 -7.9606290725933310e-03 2.0458993156102135e+01 -3.5865348108829087e-01 1.5111312429847889e+01 0 0 0
287 1 2 -1.8500190828503092e-02 1.2740020271706346e+01 1.1437225032993247e+01 7.8526601187463632e+00 0 0 0
289 1 2 -2.7419175630056629e-03 1.3425431966173257e+01 -3.5447517333395862e-01 1.5274244903922476e+01 0 1 0
291 1 2 -2.0555105643680956e-02 1.8499834647126150e+00 1.2874369354653545e+01 7.9707430245050954e+00 0 -1 0
292 1 2 -3.2789813149403685e-02 2.1385999273350233e+01 1.4329792738741189e+01 9.2446253967819985e+00 0 -1 0
293 1 2 -2.7843353371042569e-02 4.8173983121510631e+00 1.2914259682237903e+01 1.4992753691225634e+01 0 -1 0
294 1 2 -1.1037317790991201e-02 2.1961863294685820e+01 1.2924597753218832e+01 1.6113615130841396e+01 0 -1 0
295 1 2 -1.8523251261798813e-02 1.0353172838396482e+01 -1.8073117568272234e+00 8.9735094433727909e+00 0 1 0
297 1 2 -1.2469941313307791e-02 1.2813161772824103e+01 7.0703887178687772e+00 1.6353310575424548e+01 0 0 0
299 1 2 -2.3731901531316262e-03 1.9670821371178431e+00 4.1345502363055386e+00 8.8923393845932281e+00 0 0 0
300 1 2 -5.9560575668238525e-03 1.9722185642123833e+01 9.5068521156958541e-01 7.4949464629208178e+00 0 0 0
301 1 2 -1.6004273043108343e-02 4.3844828332186445e+00 4.1036741236890668e+00 1.5734119986492868e+01 0 0 0
302 1 2 -2.9124347930730515e-02 2.2265906818086449e+01 4.3110208826527616e+00 1.6048025398609127e+01 0 0 0
303 1 2 -1.9917987403395405e-02 1.0638495216907103e+01 6.8667154963377453e+00 8.7204454558254625e+00 0 0 0
305 1 2 -1.0459192722188464e-02 8.5762505309833870e+00 -1.9012258445243571e+00 1.5330205504755163e+01 0 0 0
306 1 2 -2.5905170709908842e-02 2.5671680656700918e+01 -2.0491002773119700e+00 1.6093314501519515e+01 0 0 0
307 1 2 -4.5437557118211992e-03 6.8760794705523862e+00 1.2528528397985530e+01 8.1195097996719934e+00 0 0 0
308 1 2 2.1619404705176322e-02 2.5829251102678622e+01 1.1883004197815627e+01 8.3867244621846098e+00 0 0 0
309 1 2 -1.5652090895848864e-02 1.6887323097964583e+01 1.3505148845217052e+01 1.5769700706494721e+01 0 0 0
311 1 2 3.5445888110683943e-03 -5.9386346820728364e-01 -5.4685915842464317e-01 6.8148490357934941e+00 0 0 0
312 1 2 -1.7507036771010467e-02 1.5354402861995299e+01 -1.7759288874764916e+00 8.2849194461480060e+00 0 0 0
313 1 2 -2.7442125658942267e-03 7.8578951450166130e+00 8.2832719606317617e+00 1.6058480700325404e+01 0 0 0
314 1 2 -1.5093231479545877e-02 2.5814868858669435e+01 6.9353102448435031e+00 1.5654908481809290e+01 0 0 0
315 1 2 -8.7080680359880140e-03 6.9359819145878969e+00 4.1989783699668113e+00 8.6571746142996098e+00 0 0 0
316 1 2 -2.3065645506702290e-02 2.2782814447929439e+01 4.8429468977038335e+00 8.6468028665171381e+00 0 0 0
317 1 2 -1.2048023586261117e-02 1.7280887046616563e+01 3.8178922295631228e+00 1.5980032053564102e+01 0 0 0
319 1 2 -7.1625265830795627e-03 3.2539933200882629e+01 6.1719224096371779e+00 8.2030383008044154e+00 -1 0 0
320 1 2 -1.8039056100940479e-02 1.5590690005526293e+01 7.0456359091737450e+00 8.1647095260891760e+00 0 0 0
321 1 3 -1.7838069586483901e-01 3.5611818392678267e+00 1.2675289068666224e+01 4.8094833854725128e+00 0 0 0
322 1 3 -1.7504036893006139e-01 2.0741715542466732e+01 1.2769559834065481e+01 6.2401495877526401e+00 0 0 0
323 1 3 -1.8592500543019447e-01 1.1807659167727753e+01 -1.1930238422816033e+00 1.1795755032975848e+01 0 0 0
324 1 3 -1.5599146564085722e-01 2.9684807793805227e+01 -1.1011002963878438e+00 1.3017901523274489e+01 0 0 0
325 1 3 -1.5750854216729032e-01 1.0433338134357093e+01 -8.0074898262594596e-01 5.4555380721115654e+00 0 0 0
327 1 3 -1.9701395817643169e-01 2.5055925780688679e+00 1.2045795391713840e+01 1.2041364945260657e+01 0 0 0
328 1 3 -1.6989371733360559e-01 2.1142387957969397e+01 1.2314670995157231e+01 1.3108557250955950e+01 0 0 0
329 1 3 -1.5493127793802866e-01 1.6343777383688383e+00 4.4564146242721865e+00 4.8426700356065329e+00 0 0 0
330 1 3 -1.7900232425017615e-01 2.1258358465589513e+01 3.8423679156063537e+00 4.9796629457195145e+00 0 0 0
331 1 3 -1.7723776321834478e-01 1.1651751311764180e+01 7.7909635421078978e+00 1.3090216884771124e+01 0 0 0
333 1 3 -1.6122985413516211e-01 1.1120388338960906e+01 8.0395464310982963e+00 5.2783087445456518e+00 0 0 0
335 1 3 -1.7307199046438437e-01 3.3853051558681817e+00 3.5089918539411933e+00 1.2152774414782055e+01 0 0 0
336 1 3 -1.9828267754567430e-01 2.0487019428074248e+01 3.0124188189485208e+00 1.2454391961841608e+01 0 0 0
337 1 3 -1.6297777597931931e-01 5.7016396626895869e+00 1.3235652291809043e+01 5.0435687153236390e+00 0 0 0
338 1 3 -1.3840681937155766e-01 2.2917765190288822e+01 1.3017110119980121e+01 5.7215315009425129e+00 0 0 0