ITEM: TIMESTEP
0
ITEM: NUMBER OF ATOMS
576
ITEM: BOX BOUNDS xy xz yz pp pp pp
-3.8734541101000000e+00 1.7704000473000001e+01 0.0000000000000000e+00
0.0000000000000000e+00 2.5111999511699999e+01 -3.8734541101000000e+00
0.0000000000000000e+00 1.2813326682700000e+01 0.0000000000000000e+00
ITEM: ATOMS id type xs ys zs
1 1 0.223161 0.315107 0.873623
2 1 0.776839 0.684893 0.126378
3 1 0.0268387 0.565107 0.626377
4 1 0.473161 0.934893 0.373622
5 1 0.223161 0.815107 0.873622
6 1 0.776839 0.184893 0.126378
7 1 0.0268389 0.065107 0.626378
8 1 0.473161 0.434893 0.373622
9 1 0.723161 0.315107 0.873623
10 1 0.276839 0.684893 0.126378
11 1 0.526839 0.565107 0.626377
12 1 0.973161 0.934893 0.373622
13 1 0.723161 0.815107 0.873622
14 1 0.276839 0.184893 0.126378
15 1 0.526839 0.0651069 0.626378
16 1 0.973161 0.434893 0.373622
17 1 0.15516 0.316434 0.679178
18 1 0.844839 0.683566 0.320821
19 1 0.0948396 0.566434 0.820821
20 1 0.40516 0.933566 0.179179
21 1 0.15516 0.816434 0.679178
22 1 0.844839 0.183566 0.320821
23 1 0.0948395 0.0664339 0.820822
24 1 0.40516 0.433566 0.179179
25 1 0.65516 0.316434 0.679178
26 1 0.344839 0.683566 0.320821
27 1 0.59484 0.566434 0.820821
28 1 0.905161 0.933566 0.179179
29 1 0.655161 0.816434 0.679179
30 1 0.344839 0.183566 0.320821
31 1 0.594839 0.0664339 0.820821
32 1 0.905161 0.433566 0.179179
33 1 0.277257 0.253789 0.693097
34 1 0.722743 0.746212 0.306903
35 1 0.972743 0.503788 0.806903
36 1 0.527257 0.996212 0.193097
37 1 0.277258 0.753788 0.693097
38 1 0.722743 0.246212 0.306903
39 1 0.972743 0.00378848 0.806903
40 1 0.527257 0.496212 0.193097
41 1 0.777257 0.253788 0.693097
42 1 0.222743 0.746212 0.306903
43 1 0.472743 0.503788 0.806903
44 1 0.027257 0.996212 0.193097
45 1 0.777257 0.753788 0.693097
46 1 0.222743 0.246212 0.306903
47 1 0.472743 0.00378844 0.806903
48 1 0.0272571 0.496212 0.193097
49 1 0.295859 0.276915 0.886845
50 1 0.704141 0.723085 0.113155
51 1 0.95414 0.526915 0.613155
52 1 0.54586 0.973085 0.386845
53 1 0.295859 0.776915 0.886845
54 1 0.704141 0.223085 0.113155
55 1 0.954141 0.0269152 0.613155
56 1 0.545859 0.473085 0.386845
57 1 0.79586 0.276915 0.886844
58 1 0.204141 0.723085 0.113155
59 1 0.45414 0.526915 0.613155
60 1 0.0458596 0.973085 0.386845
61 1 0.795859 0.776915 0.886845
62 1 0.204141 0.223085 0.113155
63 1 0.454141 0.0269153 0.613155
64 1 0.0458595 0.473085 0.386845
65 1 0.337097 0.308286 0.722187
66 1 0.662903 0.691714 0.277813
67 1 0.912903 0.558286 0.777812
68 1 0.587097 0.941714 0.222188
69 1 0.337097 0.808286 0.722187
70 1 0.662903 0.191714 0.277813
71 1 0.912903 0.058286 0.777813
72 1 0.587097 0.441714 0.222187
73 1 0.837097 0.308286 0.722188
74 1 0.162903 0.691714 0.277813
75 1 0.412903 0.558286 0.777812
76 1 0.0870972 0.941714 0.222188
77 1 0.837097 0.808286 0.722187
78 1 0.162903 0.191714 0.277813
79 1 0.412903 0.0582859 0.777813
80 1 0.0870971 0.441714 0.222187
81 1 0.216511 0.369473 0.710887
82 1 0.783488 0.630528 0.289114
83 1 0.0334887 0.619473 0.789114
84 1 0.466511 0.880528 0.210886
85 1 0.216512 0.869472 0.710886
86 1 0.783488 0.130528 0.289114
87 1 0.0334884 0.119472 0.789114
88 1 0.466512 0.380528 0.210886
89 1 0.716511 0.369473 0.710887
90 1 0.283488 0.630528 0.289114
91 1 0.533488 0.619472 0.789114
92 1 0.966512 0.880528 0.210886
93 1 0.716512 0.869472 0.710886
94 1 0.283488 0.130528 0.289114
95 1 0.533488 0.119472 0.789114
96 1 0.966512 0.380528 0.210886
97 2 0.208215 0.320441 0.948907
98 2 0.791786 0.679559 0.0510931
99 2 0.0417854 0.570441 0.551093
100 2 0.458215 0.929559 0.448907
101 2 0.208214 0.820441 0.948907
102 2 0.791786 0.179559 0.0510931
103 2 0.0417856 0.0704413 0.551093
104 2 0.458214 0.429559 0.448907
105 2 0.708215 0.320441 0.948907
106 2 0.291786 0.679559 0.0510932
107 2 0.541785 0.570441 0.551093
108 2 0.958215 0.929559 0.448907
109 2 0.708214 0.820441 0.948907
110 2 0.291786 0.179559 0.0510932
111 2 0.541786 0.0704412 0.551093
112 2 0.958214 0.429559 0.448907
113 2 0.0937626 0.328724 0.625922
114 2 0.906237 0.671276 0.374078
115 2 0.156237 0.578724 0.874078
116 2 0.343763 0.921276 0.125922
117 2 0.0937626 0.828724 0.625922
118 2 0.906237 0.171276 0.374078
119 2 0.156237 0.078724 0.874078
120 2 0.343763 0.421276 0.125922
121 2 0.593763 0.328724 0.625922
122 2 0.406237 0.671276 0.374078
123 2 0.656237 0.578724 0.874078
124 2 0.843763 0.921276 0.125922
125 2 0.593763 0.828724 0.625922
126 2 0.406237 0.171276 0.374078
127 2 0.656237 0.078724 0.874078
128 2 0.843763 0.421276 0.125922
129 2 0.296487 0.224164 0.641032
130 2 0.703513 0.775836 0.358968
131 2 0.953513 0.474164 0.858968
132 2 0.546487 0.0258362 0.141032
133 2 0.296487 0.724164 0.641032
134 2 0.703513 0.275836 0.358968
135 2 0.953513 0.974164 0.858968
136 2 0.546487 0.525836 0.141032
137 2 0.796487 0.224164 0.641032
138 2 0.203513 0.775836 0.358968
139 2 0.453513 0.474164 0.858968
140 2 0.0464873 0.0258362 0.141032
141 2 0.796487 0.724164 0.641032
142 2 0.203513 0.275836 0.358968
143 2 0.453513 0.974164 0.858968
144 2 0.0464874 0.525836 0.141032
145 2 0.32163 0.262375 0.969165
146 2 0.67837 0.737625 0.030835
147 2 0.92837 0.512375 0.530835
148 2 0.57163 0.987625 0.469165
149 2 0.32163 0.762375 0.969166
150 2 0.67837 0.237625 0.030835
151 2 0.92837 0.0123752 0.530835
152 2 0.57163 0.487625 0.469165
153 2 0.82163 0.262375 0.969164
154 2 0.17837 0.737625 0.0308348
155 2 0.42837 0.512375 0.530835
156 2 0.0716298 0.987625 0.469165
157 2 0.82163 0.762375 0.969165
158 2 0.17837 0.237625 0.0308349
159 2 0.42837 0.0123752 0.530835
160 2 0.07163 0.487625 0.469165
161 2 0.388878 0.306887 0.688506
162 2 0.611122 0.693113 0.311494
163 2 0.861122 0.556887 0.811494
164 2 0.638878 0.943113 0.188506
165 2 0.388877 0.806887 0.688507
166 2 0.611122 0.193113 0.311494
167 2 0.861122 0.0568867 0.811494
168 2 0.638878 0.443113 0.188506
169 2 0.888878 0.306887 0.688506
170 2 0.111122 0.693113 0.311494
171 2 0.361122 0.556887 0.811494
172 2 0.138878 0.943113 0.188506
173 2 0.888878 0.806887 0.688506
174 2 0.111122 0.193113 0.311494
175 2 0.361122 0.0568866 0.811494
176 2 0.138878 0.443113 0.188506
177 2 0.186199 0.408278 0.677708
178 2 0.813801 0.591721 0.322292
179 2 0.063801 0.658279 0.822292
180 2 0.436199 0.841721 0.177708
181 2 0.186199 0.908279 0.677708
182 2 0.813801 0.0917214 0.322292
183 2 0.0638009 0.158278 0.822292
184 2 0.436199 0.341721 0.177708
185 2 0.686199 0.408279 0.677708
186 2 0.313801 0.591721 0.322292
187 2 0.563801 0.658279 0.822292
188 2 0.936199 0.841721 0.177708
189 2 0.686199 0.908279 0.677708
190 2 0.313801 0.0917214 0.322292
191 2 0.563801 0.158279 0.822292
192 2 0.936199 0.341721 0.177708
193 3 0.150554 0.29367 0.791284
194 3 0.849447 0.706329 0.208717
195 3 0.0994466 0.543671 0.708717
196 3 0.400553 0.956329 0.291283
197 3 0.150553 0.79367 0.791284
198 3 0.849447 0.206329 0.208717
199 3 0.0994466 0.0436706 0.708717
200 3 0.400553 0.456329 0.291283
201 3 0.650554 0.293671 0.791283
202 3 0.349447 0.706329 0.208717
203 3 0.599447 0.543671 0.708717
204 3 0.900553 0.956329 0.291283
205 3 0.650553 0.793671 0.791283
206 3 0.349447 0.206329 0.208717
207 3 0.599447 0.0436706 0.708717
208 3 0.900553 0.456329 0.291283
209 3 0.0661511 0.301947 0.807413
210 3 0.933849 0.698053 0.192587
211 3 0.183849 0.551947 0.692587
212 3 0.316151 0.948053 0.307413
213 3 0.0661508 0.801947 0.807413
214 3 0.933849 0.198053 0.192587
215 3 0.183849 0.0519469 0.692587
216 3 0.316151 0.448053 0.307413
217 3 0.566151 0.301947 0.807413
218 3 0.433849 0.698053 0.192587
219 3 0.683849 0.551947 0.692587
220 3 0.816151 0.948053 0.307413
221 3 0.566151 0.801947 0.807413
222 3 0.433849 0.198053 0.192587
223 3 0.683849 0.0519469 0.692587
224 3 0.816151 0.448053 0.307413
225 3 0.196353 0.278733 0.627954
226 3 0.803648 0.721267 0.372046
227 3 0.0536474 0.528733 0.872046
228 3 0.446353 0.971267 0.127954
229 3 0.196352 0.778733 0.627953
230 3 0.803648 0.221267 0.372046
231 3 0.0536476 0.0287329 0.872046
232 3 0.446352 0.471267 0.127954
233 3 0.696353 0.278733 0.627954
234 3 0.303648 0.721267 0.372046
235 3 0.553647 0.528733 0.872046
236 3 0.946353 0.971267 0.127954
237 3 0.696352 0.778733 0.627954
238 3 0.303648 0.221267 0.372046
239 3 0.553648 0.0287329 0.872046
240 3 0.946352 0.471267 0.127954
241 3 0.14895 0.251654 0.522144
242 3 0.85105 0.748346 0.477856
243 3 0.10105 0.501654 0.977856
244 3 0.39895 0.998346 0.0221439
245 3 0.14895 0.751654 0.522144
246 3 0.85105 0.248346 0.477856
247 3 0.10105 0.00165429 0.977856
248 3 0.39895 0.498346 0.0221439
249 3 0.64895 0.251654 0.522144
250 3 0.35105 0.748346 0.477856
251 3 0.60105 0.501654 0.977856
252 3 0.89895 0.998346 0.0221438
253 3 0.64895 0.751654 0.522144
254 3 0.35105 0.248346 0.477856
255 3 0.60105 0.00165424 0.977856
256 3 0.89895 0.498346 0.0221438
257 3 0.28706 0.230254 0.798215
258 3 0.71294 0.769746 0.201785
259 3 0.96294 0.480254 0.701785
260 3 0.53706 0.0197462 0.298215
261 3 0.287061 0.730253 0.798215
262 3 0.71294 0.269746 0.201785
263 3 0.96294 0.980254 0.701785
264 3 0.53706 0.519746 0.298215
265 3 0.78706 0.230254 0.798215
266 3 0.21294 0.769746 0.201785
267 3 0.46294 0.480254 0.701785
268 3 0.0370601 0.0197462 0.298215
269 3 0.78706 0.730254 0.798215
270 3 0.21294 0.269746 0.201785
271 3 0.46294 0.980254 0.701785
272 3 0.0370603 0.519746 0.298215
273 3 0.221307 0.190753 0.806395
274 3 0.778693 0.809248 0.193606
275 3 0.0286928 0.440752 0.693606
276 3 0.471307 0.0592475 0.306394
277 3 0.221307 0.690752 0.806394
278 3 0.778693 0.309248 0.193606
279 3 0.0286928 0.940752 0.693606
280 3 0.471307 0.559248 0.306394
281 3 0.721307 0.190753 0.806395
282 3 0.278693 0.809248 0.193606
283 3 0.528693 0.440752 0.693606
284 3 0.971307 0.0592475 0.306394
285 3 0.721307 0.690752 0.806394
286 3 0.278693 0.309248 0.193606
287 3 0.528693 0.940752 0.693606
288 3 0.971307 0.559248 0.306394
289 3 0.370262 0.304554 0.834299
290 3 0.629738 0.695446 0.165701
291 3 0.879738 0.554554 0.665701
292 3 0.620262 0.945446 0.334299
293 3 0.370263 0.804554 0.834299
294 3 0.629738 0.195446 0.165701
295 3 0.879738 0.0545541 0.665701
296 3 0.620262 0.445446 0.334299
297 3 0.870262 0.304554 0.834299
298 3 0.129738 0.695446 0.165701
299 3 0.379738 0.554554 0.665701
300 3 0.120262 0.945446 0.334299
301 3 0.870262 0.804554 0.834299
302 3 0.129738 0.195446 0.165701
303 3 0.379738 0.054554 0.665701
304 3 0.120262 0.445446 0.334299
305 3 0.404602 0.35318 0.903746
306 3 0.595398 0.64682 0.0962539
307 3 0.845398 0.60318 0.596254
308 3 0.654602 0.89682 0.403746
309 3 0.404602 0.85318 0.903746
310 3 0.595398 0.14682 0.0962539
311 3 0.845398 0.10318 0.596254
312 3 0.654602 0.39682 0.403746
313 3 0.904602 0.35318 0.903746
314 3 0.0953982 0.64682 0.096254
315 3 0.345398 0.60318 0.596254
316 3 0.154602 0.89682 0.403746
317 3 0.904602 0.85318 0.903746
318 3 0.0953982 0.14682 0.096254
319 3 0.345398 0.10318 0.596254
320 3 0.154602 0.39682 0.403746
321 3 0.280228 0.356071 0.661021
322 3 0.719773 0.643929 0.338978
323 3 0.969772 0.606071 0.838979
324 3 0.530228 0.893928 0.161021
325 3 0.280228 0.856071 0.661023
326 3 0.719773 0.143929 0.338978
327 3 0.969772 0.106071 0.838978
328 3 0.530228 0.393929 0.161022
329 3 0.780228 0.356072 0.66102
330 3 0.219773 0.643929 0.338978
331 3 0.469773 0.606072 0.838979
332 3 0.0302272 0.893928 0.161021
333 3 0.780227 0.856071 0.661022
334 3 0.219773 0.143929 0.338978
335 3 0.469773 0.106071 0.838978
336 3 0.0302273 0.393929 0.161022
337 3 0.327319 0.404848 0.639096
338 3 0.672681 0.595152 0.360904
339 3 0.922681 0.654849 0.860904
340 3 0.577319 0.845151 0.139096
341 3 0.327319 0.904848 0.639096
342 3 0.672681 0.0951515 0.360904
343 3 0.922681 0.154848 0.860904
344 3 0.577319 0.345152 0.139096
345 3 0.827319 0.404849 0.639096
346 3 0.172681 0.595152 0.360904
347 3 0.422681 0.654849 0.860904
348 3 0.0773186 0.845151 0.139096
349 3 0.827319 0.904848 0.639096
350 3 0.172681 0.0951515 0.360904
351 3 0.422681 0.154848 0.860904
352 3 0.0773186 0.345152 0.139096
353 3 0.242408 0.371754 0.832932
354 3 0.757592 0.628246 0.167068
355 3 0.00759214 0.621754 0.667068
356 3 0.492408 0.878246 0.332932
357 3 0.242408 0.871754 0.832932
358 3 0.757592 0.128246 0.167068
359 3 0.0075923 0.121754 0.667068
360 3 0.492408 0.378246 0.332932
361 3 0.742408 0.371754 0.832932
362 3 0.257592 0.628246 0.167068
363 3 0.507592 0.621754 0.667068
364 3 0.992408 0.878246 0.332932
365 3 0.742408 0.871754 0.832932
366 3 0.257592 0.128246 0.167068
367 3 0.507592 0.121754 0.667068
368 3 0.992408 0.378246 0.332932
369 3 0.208469 0.42134 0.87949
370 3 0.791531 0.57866 0.12051
371 3 0.0415314 0.67134 0.62051
372 3 0.458469 0.82866 0.37949
373 3 0.208469 0.92134 0.87949
374 3 0.791531 0.0786602 0.12051
375 3 0.0415314 0.17134 0.62051
376 3 0.458469 0.32866 0.37949
377 3 0.708469 0.42134 0.87949
378 3 0.291531 0.57866 0.12051
379 3 0.541531 0.67134 0.62051
380 3 0.958469 0.82866 0.37949
381 3 0.708469 0.92134 0.87949
382 3 0.291531 0.0786602 0.12051
383 3 0.541531 0.17134 0.62051
384 3 0.958469 0.32866 0.37949
385 4 0.00517465 0.309135 0.728002
386 4 0.994825 0.690865 0.271998
387 4 0.244825 0.559135 0.771998
388 4 0.255175 0.940865 0.228002
389 4 0.00517472 0.809135 0.728002
390 4 0.994825 0.190865 0.271998
391 4 0.244825 0.0591354 0.771998
392 4 0.255175 0.440865 0.228002
393 4 0.505175 0.309135 0.728002
394 4 0.494825 0.690865 0.271998
395 4 0.744825 0.559135 0.771998
396 4 0.755175 0.940865 0.228002
397 4 0.505175 0.809135 0.728002
398 4 0.494825 0.190865 0.271998
399 4 0.744825 0.0591354 0.771998
400 4 0.755175 0.440865 0.228002
401 4 0.0595574 0.299546 0.900261
402 4 0.940443 0.700454 0.0997391
403 4 0.190442 0.549546 0.599739
404 4 0.309558 0.950454 0.400261
405 4 0.0595574 0.799546 0.900261
406 4 0.940443 0.200454 0.0997391
407 4 0.190443 0.049546 0.599739
408 4 0.309557 0.450454 0.400261
409 4 0.559558 0.299546 0.900261
410 4 0.440443 0.700454 0.0997391
411 4 0.690442 0.549546 0.599739
412 4 0.809557 0.950454 0.400261
413 4 0.559557 0.799546 0.900261
414 4 0.440443 0.200454 0.0997391
415 4 0.690443 0.049546 0.599739
416 4 0.809557 0.450454 0.400261
417 4 0.1793 0.212247 0.487494
418 4 0.8207 0.787753 0.512506
419 4 0.0706995 0.462247 0.0125055
420 4 0.4293 0.0377528 0.987494
421 4 0.1793 0.712247 0.487495
422 4 0.8207 0.287753 0.512506
423 4 0.0706996 0.962247 0.0125055
424 4 0.4293 0.537753 0.987495
425 4 0.6793 0.212247 0.487494
426 4 0.3207 0.787753 0.512506
427 4 0.5707 0.462247 0.0125056
428 4 0.9293 0.0377528 0.987494
429 4 0.6793 0.712247 0.487494
430 4 0.3207 0.287753 0.512506
431 4 0.5707 0.962247 0.0125055
432 4 0.9293 0.537753 0.987494
433 4 0.0850023 0.272864 0.467882
434 4 0.914998 0.727136 0.532118
435 4 0.164998 0.522864 0.0321184
436 4 0.335002 0.977136 0.967882
437 4 0.0850024 0.772864 0.467882
438 4 0.914998 0.227136 0.532118
439 4 0.164998 0.0228636 0.0321184
440 4 0.335002 0.477136 0.967882
441 4 0.585002 0.272864 0.467882
442 4 0.414998 0.727136 0.532118
443 4 0.664998 0.522864 0.0321184
444 4 0.835002 0.977136 0.967882
445 4 0.585002 0.772864 0.467882
446 4 0.414998 0.227136 0.532118
447 4 0.664998 0.0228636 0.0321184
448 4 0.835002 0.477136 0.967882
449 4 0.189591 0.160208 0.727591
450 4 0.810409 0.839793 0.272409
451 4 0.0604089 0.410207 0.772409
452 4 0.439591 0.0897926 0.227591
453 4 0.189591 0.660207 0.727591
454 4 0.810409 0.339793 0.272409
455 4 0.060409 0.910207 0.772409
456 4 0.439591 0.589793 0.227591
457 4 0.689591 0.160208 0.727591
458 4 0.310409 0.839793 0.272409
459 4 0.560409 0.410207 0.772409
460 4 0.939591 0.0897926 0.227591
461 4 0.689591 0.660207 0.727591
462 4 0.310409 0.339793 0.272409
463 4 0.560409 0.910207 0.772409
464 4 0.939591 0.589793 0.227591
465 4 0.201054 0.187077 0.892005
466 4 0.798946 0.812923 0.107995
467 4 0.048946 0.437077 0.607995
468 4 0.451054 0.0629226 0.392005
469 4 0.201054 0.687077 0.892005
470 4 0.798946 0.312923 0.107995
471 4 0.0489461 0.937077 0.607995
472 4 0.451054 0.562923 0.392005
473 4 0.701054 0.187077 0.892005
474 4 0.298946 0.812923 0.107995
475 4 0.548946 0.437077 0.607995
476 4 0.951054 0.0629226 0.392005
477 4 0.701054 0.687077 0.892005
478 4 0.298946 0.312923 0.107995
479 4 0.548946 0.937077 0.607995
480 4 0.951054 0.562923 0.392005
481 4 0.433139 0.391547 0.86129
482 4 0.566861 0.608453 0.13871
483 4 0.816861 0.641547 0.63871
484 4 0.683139 0.858453 0.36129
485 4 0.433139 0.891547 0.86129
486 4 0.566861 0.108453 0.13871
487 4 0.816861 0.141547 0.63871
488 4 0.683139 0.358453 0.36129
489 4 0.933139 0.391547 0.86129
490 4 0.0668611 0.608453 0.13871
491 4 0.316861 0.641547 0.63871
492 4 0.183139 0.858453 0.36129
493 4 0.933139 0.891547 0.86129
494 4 0.0668611 0.108453 0.13871
495 4 0.316861 0.141547 0.63871
496 4 0.183139 0.358453 0.36129
497 4 0.400663 0.357999 0.99921
498 4 0.599336 0.642001 0.000789432
499 4 0.849336 0.607999 0.500789
500 4 0.650664 0.892001 0.499211
501 4 0.400663 0.857999 0.99921
502 4 0.599336 0.142001 0.000789412
503 4 0.849336 0.107999 0.50079
504 4 0.650664 0.392001 0.499211
505 4 0.900664 0.357999 0.999211
506 4 0.0993365 0.642001 0.000789488
507 4 0.349336 0.607999 0.500789
508 4 0.150664 0.892001 0.499211
509 4 0.900664 0.857999 0.99921
510 4 0.0993365 0.142001 0.000789547
511 4 0.349336 0.107999 0.500789
512 4 0.150664 0.392001 0.499211
513 4 0.301835 0.452539 0.642369
514 4 0.698165 0.547461 0.357631
515 4 0.948165 0.702539 0.857631
516 4 0.551835 0.797461 0.142369
517 4 0.301835 0.952539 0.642369
518 4 0.698165 0.0474609 0.357631
519 4 0.948165 0.202539 0.857631
520 4 0.551835 0.297461 0.142369
521 4 0.801835 0.452539 0.642369
522 4 0.198165 0.547461 0.357631
523 4 0.448165 0.702539 0.857631
524 4 0.0518348 0.797461 0.142369
525 4 0.801835 0.952539 0.642369
526 4 0.198165 0.0474609 0.357631
527 4 0.448165 0.202539 0.857631
528 4 0.0518347 0.297461 0.142369
529 4 0.38948 0.39684 0.61037
530 4 0.61052 0.60316 0.389631
531 4 0.86052 0.64684 0.88963
532 4 0.63948 0.85316 0.11037
533 4 0.38948 0.89684 0.610369
534 4 0.61052 0.10316 0.389631
535 4 0.86052 0.14684 0.88963
536 4 0.63948 0.35316 0.11037
537 4 0.88948 0.39684 0.61037
538 4 0.11052 0.60316 0.389631
539 4 0.36052 0.64684 0.88963
540 4 0.13948 0.85316 0.11037
541 4 0.88948 0.89684 0.610369
542 4 0.11052 0.10316 0.389631
543 4 0.36052 0.14684 0.889631
544 4 0.13948 0.35316 0.110369
545 4 0.19585 0.46568 0.828563
546 4 0.80415 0.53432 0.171437
547 4 0.0541502 0.71568 0.671437
548 4 0.44585 0.78432 0.328563
549 4 0.19585 0.96568 0.828563
550 4 0.80415 0.0343198 0.171437
551 4 0.0541502 0.21568 0.671437
552 4 0.44585 0.28432 0.328563
553 4 0.69585 0.46568 0.828563
554 4 0.30415 0.53432 0.171437
555 4 0.55415 0.71568 0.671437
556 4 0.94585 0.78432 0.328563
557 4 0.69585 0.96568 0.828563
558 4 0.30415 0.0343198 0.171437
559 4 0.55415 0.21568 0.671437
560 4 0.94585 0.28432 0.328563
561 4 0.195436 0.417447 0.968925
562 4 0.804564 0.582553 0.031075
563 4 0.0545639 0.667447 0.531075
564 4 0.445436 0.832553 0.468925
565 4 0.195436 0.917447 0.968925
566 4 0.804564 0.082553 0.031075
567 4 0.0545639 0.167447 0.531075
568 4 0.445436 0.332553 0.468925
569 4 0.695436 0.417447 0.968925
570 4 0.304564 0.582553 0.031075
571 4 0.554564 0.667447 0.531075
572 4 0.945436 0.832553 0.468925
573 4 0.695436 0.917447 0.968925
574 4 0.304564 0.082553 0.031075
575 4 0.554564 0.167447 0.531075
576 4 0.945436 0.332553 0.468925
ITEM: TIMESTEP
1000
ITEM: NUMBER OF ATOMS
576
ITEM: BOX BOUNDS xy xz yz pp pp pp
-5.4512714446471220e+00 1.9120030541993977e+01 7.2499037234182523e-02
-2.6553287317690355e+00 2.7803616765982397e+01 -4.1077404128873125e+00
-2.5988992273081291e-01 1.3073216605430835e+01 3.6288522513416112e-02
ITEM: ATOMS id type xs ys zs
1 1 0.246562 0.315873 0.875655
3 1 0.00885178 0.557255 0.626762
4 1 0.507597 0.937501 0.374973
5 1 0.23344 0.805056 0.861824
7 1 0.00220327 0.0628712 0.617245
8 1 0.497406 0.440827 0.379489
10 1 0.257618 0.690534 0.137418
11 1 0.50314 0.56595 0.626145
12 1 0.00064745 0.942772 0.381701
14 1 0.260524 0.185747 0.121861
15 1 0.500462 0.0589222 0.63688
17 1 0.179135 0.319789 0.697794
19 1 0.0735837 0.562397 0.823136
20 1 0.425268 0.933739 0.182717
21 1 0.171995 0.813384 0.671705
23 1 0.0682748 0.0682794 0.806106
24 1 0.42854 0.435911 0.190885
25 1 0.677747 0.317565 0.67972
26 1 0.324714 0.683793 0.329608
27 1 0.566932 0.573743 0.808369
29 1 0.680288 0.81707 0.694173
30 1 0.328189 0.188152 0.318488
31 1 0.564674 0.0696625 0.833212
33 1 0.274791 0.275894 0.680279
36 1 0.531873 0.974339 0.177065
37 1 0.277015 0.769086 0.673618
40 1 0.531693 0.481038 0.188152
42 1 0.21686 0.72514 0.328014
43 1 0.464538 0.528386 0.816613
44 1 0.0378448 0.982346 0.195758
46 1 0.218874 0.226612 0.304437
47 1 0.459872 0.0258999 0.828955
48 1 0.0336339 0.47816 0.176731
49 1 0.301708 0.283182 0.863008
50 1 0.68849 0.714588 0.134773
52 1 0.565952 0.966402 0.357819
53 1 0.297705 0.774961 0.860458
56 1 0.557996 0.470435 0.371087
58 1 0.196292 0.718357 0.149765
59 1 0.441766 0.536754 0.634237
60 1 0.0592769 0.973774 0.377448
62 1 0.195823 0.212014 0.125082
63 1 0.438307 0.0288808 0.644796
64 1 0.0532136 0.464778 0.356819
65 1 0.331179 0.319523 0.713912
66 1 0.670172 0.682407 0.292825
68 1 0.577836 0.926227 0.205894
69 1 0.325969 0.813634 0.71107
70 1 0.668333 0.177263 0.286615
72 1 0.581293 0.436672 0.219458
74 1 0.169791 0.6796 0.296379
75 1 0.415858 0.575761 0.783531
76 1 0.0909148 0.9361 0.230015
78 1 0.176076 0.178103 0.283681
79 1 0.409481 0.0697495 0.782588
80 1 0.0767763 0.429428 0.203932
81 1 0.230032 0.362591 0.730374
83 1 0.0293827 0.605761 0.779217
84 1 0.47433 0.889646 0.222825
85 1 0.222221 0.855345 0.72006
87 1 0.0238852 0.11142 0.769507
88 1 0.47674 0.394283 0.223297
90 1 0.276474 0.639013 0.285751
91 1 0.517456 0.61602 0.770496
94 1 0.286384 0.142318 0.289381
95 1 0.514842 0.111881 0.78364
97 2 0.239641 0.312542 0.952041
99 2 0.0160023 0.55086 0.552835
100 2 0.50558 0.940524 0.451355
101 2 0.222949 0.799471 0.932282
103 2 0.00656912 0.0582819 0.539671
104 2 0.490152 0.445112 0.451782
106 2 0.265716 0.694552 0.0669984
107 2 0.504483 0.563154 0.548363
110 2 0.268687 0.187563 0.0467986
111 2 0.505453 0.0537221 0.5629
113 2 0.127351 0.331743 0.654331
115 2 0.122649 0.574363 0.879328
116 2 0.374537 0.9197 0.143159
117 2 0.122892 0.829654 0.625996
119 2 0.119688 0.0762656 0.860455
120 2 0.376904 0.426757 0.141169
121 2 0.631707 0.326256 0.624503
122 2 0.376847 0.675565 0.38095
123 2 0.618242 0.587014 0.856989
125 2 0.628403 0.830455 0.64727
126 2 0.381085 0.179358 0.373605
127 2 0.610879 0.0818701 0.886677
129 2 0.294926 0.253966 0.632898
132 2 0.554929 0.990514 0.125756
133 2 0.29955 0.748562 0.627232
134 2 0.689439 0.243887 0.365765
136 2 0.555954 0.505112 0.152007
138 2 0.192592 0.745747 0.371294
139 2 0.441315 0.508395 0.859476
140 2 0.0595064 0.0057086 0.152975
142 2 0.19163 0.246421 0.348113
143 2 0.433306 0.00299507 0.867508
144 2 0.057024 0.498211 0.128421
145 2 0.322917 0.2664 0.931014
146 2 0.667625 0.730179 0.065334
148 2 0.592954 0.981308 0.428446
149 2 0.319773 0.759384 0.93104
150 2 0.676086 0.225688 0.0655475
152 2 0.583058 0.483516 0.443788
154 2 0.169826 0.732667 0.0796822
155 2 0.417602 0.519026 0.565585
156 2 0.0809906 0.986729 0.449908
158 2 0.168018 0.225036 0.0519062
159 2 0.418478 0.0108691 0.576151
160 2 0.0823585 0.479855 0.425695
161 2 0.367545 0.316758 0.666043
162 2 0.635801 0.677476 0.339781
164 2 0.614528 0.925246 0.159953
165 2 0.365233 0.816855 0.67097
166 2 0.628649 0.176431 0.32765
168 2 0.620014 0.435575 0.177059
170 2 0.132666 0.67881 0.34113
171 2 0.376323 0.57675 0.822687
172 2 0.137114 0.934352 0.201197
174 2 0.141037 0.180837 0.334599
175 2 0.370823 0.0728409 0.82144
176 2 0.120105 0.425665 0.172289
177 2 0.197198 0.389816 0.702327
179 2 0.0601629 0.633098 0.80958
180 2 0.439499 0.861841 0.202214
181 2 0.189589 0.884091 0.696597
183 2 0.0527438 0.142347 0.791044
184 2 0.445234 0.364747 0.19642
186 2 0.309622 0.609081 0.314534
187 2 0.549778 0.645254 0.788677
190 2 0.318679 0.113869 0.320277
191 2 0.540481 0.144396 0.808721
193 3 0.169225 0.300042 0.791922
195 3 0.0892037 0.543605 0.732482
196 3 0.419792 0.952916 0.277397
197 3 0.158858 0.792183 0.763133
199 3 0.0773841 0.0461875 0.713584
200 3 0.420125 0.456533 0.284083
201 3 0.662198 0.299331 0.779541
202 3 0.335427 0.704355 0.237286
203 3 0.578851 0.551169 0.717422
205 3 0.666441 0.79471 0.780802
206 3 0.339538 0.204127 0.221131
207 3 0.580321 0.0512843 0.739886
209 3 0.107316 0.320248 0.82817
211 3 0.152295 0.564448 0.705345
212 3 0.364351 0.934241 0.32447
213 3 0.0954973 0.813962 0.789585
215 3 0.140746 0.0647574 0.681453
216 3 0.350149 0.442007 0.307914
217 3 0.599697 0.326652 0.794564
218 3 0.400434 0.682708 0.212676
219 3 0.638454 0.573523 0.682941
221 3 0.606073 0.813727 0.815579
222 3 0.402254 0.180854 0.200581
223 3 0.643193 0.0744559 0.716192
225 3 0.202284 0.291307 0.617924
227 3 0.0337778 0.534252 0.886169
228 3 0.458381 0.963844 0.117299
229 3 0.205512 0.784327 0.607753
231 3 0.0353733 0.0385774 0.878079
232 3 0.461194 0.468726 0.12093
234 3 0.289028 0.712224 0.396316
235 3 0.535982 0.540842 0.878291
238 3 0.289531 0.218999 0.376018
239 3 0.529736 0.038225 0.897502
241 3 0.153283 0.248975 0.582626
243 3 0.0806621 0.490466 0.927915
244 3 0.411773 0.00815131 0.0764066
245 3 0.154062 0.745089 0.555776
247 3 0.0812241 0.995258 0.913905
248 3 0.40915 0.509666 0.0821898
249 3 0.656665 0.239895 0.585011
250 3 0.335968 0.753059 0.44095
251 3 0.586637 0.498803 0.920369
253 3 0.661308 0.748126 0.575919
254 3 0.33508 0.264051 0.415926
255 3 0.580443 0.996826 0.938192
257 3 0.282402 0.250667 0.776093
260 3 0.545403 0.999855 0.275531
261 3 0.280271 0.743433 0.772103
264 3 0.536143 0.506182 0.292886
266 3 0.212999 0.751594 0.230153
267 3 0.456807 0.503385 0.717709
268 3 0.0434975 0.00769126 0.29503
270 3 0.208101 0.248849 0.199357
271 3 0.460098 0.995993 0.730366
272 3 0.0394558 0.502609 0.275552
273 3 0.230941 0.210107 0.782029
275 3 0.015061 0.461018 0.6897
276 3 0.492467 0.0392969 0.286063
277 3 0.224841 0.708581 0.783632
279 3 0.007539 0.961127 0.689915
280 3 0.484496 0.542314 0.311411
282 3 0.263067 0.789789 0.210703
283 3 0.510899 0.464792 0.714378
286 3 0.258728 0.287046 0.183418
287 3 0.521329 0.964388 0.723684
289 3 0.368002 0.312818 0.819731
290 3 0.628947 0.68422 0.184809
292 3 0.620995 0.932931 0.310268
293 3 0.36144 0.807484 0.818002
294 3 0.634292 0.181177 0.178919
296 3 0.620387 0.441572 0.32431
298 3 0.132463 0.685913 0.190574
299 3 0.377956 0.568252 0.675828
300 3 0.127118 0.941152 0.337529
302 3 0.13686 0.181851 0.175084
303 3 0.376677 0.0591816 0.674742
304 3 0.111588 0.431633 0.315727
305 3 0.40253 0.35068 0.898772
306 3 0.604675 0.644493 0.110972
308 3 0.648913 0.891627 0.384597
309 3 0.395076 0.845464 0.893707
310 3 0.616605 0.139439 0.11227
312 3 0.646081 0.399424 0.395975
314 3 0.108256 0.645232 0.112564
315 3 0.349335 0.608679 0.602898
316 3 0.154122 0.899539 0.405476
318 3 0.116265 0.138802 0.105641
319 3 0.354305 0.101704 0.606968
320 3 0.134179 0.390155 0.386532
321 3 0.284635 0.361827 0.67948
324 3 0.530357 0.88451 0.168162
325 3 0.283089 0.858476 0.68006
328 3 0.536774 0.3922 0.182165
330 3 0.215739 0.637188 0.332837
331 3 0.459321 0.618098 0.816149
332 3 0.04709 0.89523 0.186011
334 3 0.224953 0.13861 0.326743
335 3 0.452047 0.112959 0.81797
336 3 0.031268 0.390233 0.157792
337 3 0.333357 0.404698 0.698205
338 3 0.672995 0.596165 0.315498
340 3 0.576874 0.84084 0.200105
341 3 0.326536 0.903624 0.706312
342 3 0.680035 0.0883898 0.309392
344 3 0.578492 0.346249 0.201886
346 3 0.17772 0.590443 0.309712
347 3 0.417922 0.664629 0.79219
348 3 0.0922997 0.850974 0.208254
350 3 0.181062 0.092049 0.306762
351 3 0.410382 0.158202 0.787469
352 3 0.0728602 0.344505 0.176982
353 3 0.254403 0.363945 0.85451
355 3 0.00867667 0.604729 0.654225
356 3 0.503075 0.88994 0.340043
357 3 0.240607 0.853015 0.841122
359 3 0.000686487 0.110044 0.642058
360 3 0.499805 0.39308 0.351445
362 3 0.254266 0.641383 0.165307
363 3 0.497148 0.613361 0.64553
364 3 0.00735741 0.894404 0.35324
366 3 0.264444 0.139941 0.165581
367 3 0.500276 0.107404 0.659277
369 3 0.202318 0.397156 0.888124
371 3 0.0511112 0.636631 0.597927
372 3 0.460476 0.856157 0.388148
373 3 0.198608 0.885359 0.895223
375 3 0.0558602 0.136673 0.601288
376 3 0.451659 0.362587 0.398765
378 3 0.2992 0.609925 0.115094
379 3 0.541211 0.645403 0.598694
382 3 0.316726 0.108943 0.130741
383 3 0.546531 0.138109 0.613134
385 4 0.0542009 0.334195 0.760261
387 4 0.203793 0.577503 0.778997
388 4 0.311649 0.913747 0.267091
389 4 0.0439252 0.824573 0.711582
391 4 0.188202 0.0881265 0.742775
392 4 0.300103 0.425218 0.239955
393 4 0.551497 0.340982 0.716676
394 4 0.452921 0.670781 0.284236
397 4 0.563676 0.841359 0.758696
398 4 0.439593 0.15216 0.263461
401 4 0.112499 0.319465 0.922935
403 4 0.155733 0.564397 0.613368
404 4 0.367768 0.945729 0.41627
405 4 0.0844756 0.808277 0.874568
407 4 0.144511 0.0558907 0.592021
408 4 0.34689 0.448326 0.39733
409 4 0.591845 0.326587 0.88407
410 4 0.402294 0.683178 0.121745
411 4 0.633789 0.577488 0.588268
413 4 0.596452 0.799732 0.899623
414 4 0.408068 0.185979 0.110441
415 4 0.647637 0.0759936 0.625822
417 4 0.17579 0.213093 0.554568
419 4 0.0470716 0.454697 0.927461
420 4 0.441567 0.0432516 0.0687035
421 4 0.177702 0.70769 0.540565
423 4 0.0517775 0.959998 0.930058
424 4 0.435071 0.547744 0.0745568
425 4 0.682241 0.2035 0.566209
426 4 0.309459 0.790998 0.448889
427 4 0.561975 0.464883 0.9493
429 4 0.682281 0.713115 0.544707
430 4 0.303234 0.300573 0.40643
431 4 0.555582 0.96184 0.966935
433 4 0.0914243 0.256186 0.582549
435 4 0.145365 0.492746 0.958645
436 4 0.346976 0.00348069 0.0371757
437 4 0.0901982 0.753789 0.531659
439 4 0.146725 0.996251 0.921329
440 4 0.344413 0.502913 0.0599629
441 4 0.592737 0.248511 0.568137
442 4 0.401456 0.748025 0.464319
443 4 0.648054 0.502549 0.914649
445 4 0.597611 0.753179 0.569882
446 4 0.398088 0.259074 0.466526
447 4 0.643547 6.49639e-05 0.943868
449 4 0.226793 0.177397 0.724779
451 4 0.0319962 0.426305 0.745387
452 4 0.493899 0.0763929 0.244466
453 4 0.22606 0.671222 0.741997
455 4 0.00550461 0.923233 0.726859
456 4 0.472268 0.576408 0.254842
458 4 0.270237 0.826065 0.256238
459 4 0.511368 0.431184 0.767136
462 4 0.269278 0.322004 0.236669