LAMMPS data file via write_data, version 15 Apr 2020, timestep = 80000

576 atoms
4 atom types

7.4549151556166038e-02 1.7629451321444115e+01 xlo xhi
-3.4929593138770834e+00 2.8604958825577715e+01 ylo yhi
-4.0713255994202946e-01 1.3220459242641844e+01 zlo zhi
1.4003675102808064e-01 -2.0373463605971320e+00 1.9481014891498069e-01 xy xz yz

Masses

1 12.0107
2 1.00794
3 14.0067
4 15.9994

Atoms # full

1 1 1 6.3462817253120682e-02 3.1966965626018302e+00 6.6837472170607803e+00 1.1671407273973486e+01 0 0 0
4 1 1 6.3549214416463606e-02 8.4724437697487112e+00 2.6865273708011980e+01 3.8009965323702906e+00 0 0 0
5 1 1 5.4933886156159434e-02 3.4680003563428565e+00 2.2658438589639314e+01 1.1031986065411767e+01 0 0 0
7 1 1 6.7847247451309989e-02 1.6119786309340565e+01 -2.1121620793161124e+00 8.4437907294430854e+00 -1 0 0
8 1 1 6.1379229100785512e-02 8.2542675373108541e+00 1.0857838597771014e+01 4.1900829960315420e+00 0 0 0
10 1 1 6.1855015919136419e-02 3.8658668116445067e+00 1.8501573193972572e+01 1.6069968127716687e+00 0 0 0
11 1 1 6.3029789440854328e-02 7.8400274689126963e+00 1.4560232851677291e+01 8.6009032861072576e+00 0 0 0
14 1 1 5.0821366372795738e-02 3.5938488801443760e+00 2.3876419969804052e+00 1.5798720344685888e+00 0 0 0
15 1 1 5.5794956564899578e-02 7.3929325735597802e+00 -1.9063704606045517e+00 8.0341348913702522e+00 0 0 0
17 1 1 8.1510316278499306e-02 1.3070914629736314e+00 7.2213011233698996e+00 1.0050627897532353e+01 0 0 0
19 1 1 7.3095450359062814e-02 6.4174572459738299e-01 1.4862218937913855e+01 1.0851133849857536e+01 0 0 0
20 1 1 8.4204523606457637e-02 6.6817897484130899e+00 2.6605428061589848e+01 2.1783106218470056e+00 0 0 0
21 1 1 6.9574325539593376e-02 1.6257197456794203e+00 2.3309657831273334e+01 9.4819024139997072e+00 0 0 0
23 1 1 9.4662741408251400e-02 -9.1295131250287431e-02 -1.3271529093540941e+00 1.0350220064934689e+01 0 0 0
24 1 1 7.6014284448589084e-02 6.5713613079370177e+00 1.0458058442339500e+01 2.5061774749431809e+00 0 0 0
25 1 1 5.6757348290923527e-02 9.4260183897636018e+00 7.4974006659146664e+00 9.7005690451677840e+00 0 0 0
26 1 1 9.6328764038685857e-02 5.8000426631340991e+00 1.7831087214064716e+01 2.8451869334094835e+00 0 0 0
27 1 1 1.0022315814842260e-01 9.6484453614855976e+00 1.5883252580177864e+01 9.4732282687378326e+00 0 0 0
29 1 1 8.2419167034048044e-02 9.9005216516129924e+00 2.3088248102154544e+01 9.6581164531723065e+00 0 0 0
30 1 1 7.1729550383082569e-02 5.3060994168060498e+00 1.7411610118143495e+00 3.2141593497141550e+00 0 0 0
31 1 1 8.5496618589396514e-02 9.2975535414604344e+00 -9.5216862220773946e-01 9.3871952977548450e+00 0 0 0
33 1 1 8.1980055095330656e-02 3.2167370600621306e+00 6.4002646721125664e+00 8.4895779055236922e+00 0 0 0
36 1 1 1.0128818442787621e-01 8.6374111157315738e+00 2.6956990623655710e+01 6.9120188338436761e-01 0 0 0
37 1 1 9.8984238385779397e-02 3.3219898733471491e+00 2.2605584646703523e+01 7.7461866351176809e+00 0 0 0
40 1 1 8.6942429018305539e-02 8.5422132234363808e+00 1.0394681917725594e+01 1.1393659929079889e+00 0 0 0
42 1 1 7.4646685518537439e-02 4.2199927449073105e+00 1.8564709156334267e+01 4.7043760958594563e+00 0 0 0
43 1 1 9.7938762525466960e-02 8.4903995878587395e+00 1.5232289230551800e+01 1.1591308076145605e+01 0 0 0
46 1 1 1.0046598955692435e-01 3.4443940707242442e+00 2.4610585007431540e+00 4.7798134985205927e+00 0 0 0
47 1 1 1.0651902581336840e-01 7.6505247260740878e+00 -1.7288905263211669e+00 1.1154806727674437e+01 0 0 0
49 1 1 5.8225291057999416e-02 4.2623720435271970e+00 6.0771982703729517e+00 1.0730923678856620e+01 0 0 0
50 1 1 7.6968654205647288e-02 1.1787449185144647e+01 1.9598404615867253e+01 2.7357890023524027e+00 0 0 0
52 1 1 5.1773661579481989e-02 9.6774999209998658e+00 2.7138067920167167e+01 2.8526017662666807e+00 0 0 0
53 1 1 5.9206758103055729e-02 4.6202867490014690e+00 2.2370549186766233e+01 9.9988378539837104e+00 0 0 0
56 1 1 6.8369153198907073e-02 9.5289570266461752e+00 1.0943259536704213e+01 3.2880376230966504e+00 0 0 0
58 1 1 6.0291610311607680e-02 2.8975201948045619e+00 1.8953882295229196e+01 2.7518272249191238e+00 0 0 0
59 1 1 5.4055888510329851e-02 7.1099282949960152e+00 1.4114375651995232e+01 9.8637042793781564e+00 0 0 0
60 1 1 5.8166264246340728e-02 7.3809197684421246e-01 2.6977389808214877e+01 3.3487416218914903e+00 0 0 0
62 1 1 6.6241237475490461e-02 2.4282741957036560e+00 2.7650177688448379e+00 2.5120695466121288e+00 0 0 0
63 1 1 5.2644046630548010e-02 6.3939760760095270e+00 -2.2756178639510756e+00 9.1461303348852052e+00 0 0 0
64 1 1 5.2973013324745244e-02 2.6753213544170151e-01 1.1707208131610001e+01 3.9453007702748852e+00 0 0 0
65 1 1 8.3955355325043418e-02 3.9588388600313484e+00 7.8652871411528302e+00 8.7064476149159518e+00 0 0 0
66 1 1 6.8676026205670301e-02 1.2028815633962768e+01 1.7580026395788941e+01 4.0648988626132576e+00 0 0 0
68 1 1 9.7214913181462415e-02 9.1297614822377522e+00 2.5322559351929151e+01 9.2331184558800783e-01 0 0 0
69 1 1 8.8590154947425448e-02 4.1591727591987837e+00 2.4054031723554449e+01 8.2190670536247694e+00 0 0 0
70 1 1 9.2049902091544802e-02 1.2515767586856114e+01 1.6906079079689951e+00 4.0855703305195403e+00 0 0 0
72 1 1 1.0107154882757716e-01 9.0565643955341919e+00 8.9419509365771397e+00 1.8082340494410856e+00 0 0 0
74 1 1 8.1925852496407867e-02 3.2327478892973618e+00 1.7233581511807465e+01 4.4411678049595151e+00 0 0 0
75 1 1 1.0359121557228058e-01 7.1867268161561562e+00 1.6319281463304890e+01 1.1173023363601166e+01 0 0 0
76 1 1 7.9570653852861079e-02 1.4341268922829054e-01 2.5307865426392613e+01 1.5784584032824116e+00 0 0 0
78 1 1 8.1954746252630939e-02 2.6329255289923981e+00 1.0115447621342408e+00 4.2359543853486725e+00 0 0 0
79 1 1 8.8920622397739124e-02 6.5903790981004962e+00 -3.9929144719631582e-01 1.0749806427045828e+01 0 0 0
80 1 1 8.5754401060321742e-02 2.2348507813877927e-02 1.0094644131445321e+01 2.1168446880113638e+00 0 0 0
81 1 1 8.4098861993038759e-02 2.1328181100232388e+00 8.5919865413361407e+00 1.0345287731228707e+01 0 0 0
83 1 1 8.5961913160893855e-02 2.6221817439317108e-01 1.6364469379961189e+01 1.0293479601272006e+01 0 0 0
84 1 1 6.6937890509303849e-02 7.2016590699584073e+00 2.5062016149377712e+01 2.5605718164938431e+00 0 0 0
85 1 1 8.0073791728849264e-02 2.3981597721646701e+00 2.4695868613347670e+01 9.8270146982992799e+00 0 0 0
87 1 1 8.0307943282912950e-02 -7.9445803721489694e-01 1.9196351364864750e-02 9.6720598012899579e+00 0 0 0
88 1 1 8.7142939540842623e-02 7.0079933391923745e+00 8.9755306846994607e+00 3.1660584153139393e+00 0 0 0
90 1 1 6.8846302454197400e-02 4.8110776403586364e+00 1.6444830561319343e+01 2.6244061366092049e+00 0 0 0
91 1 1 7.9934815672818266e-02 8.4018157030462159e+00 1.6951055062060547e+01 9.0247483187258535e+00 0 0 0
94 1 1 7.3571661787244017e-02 4.5324540391296422e+00 3.8266924365714683e-01 2.7910276003336447e+00 0 0 0
95 1 1 9.2185378974465479e-02 8.3199251340604832e+00 3.5654640406320759e-01 8.9970891692249069e+00 0 0 0
97 1 2 2.0099659394010214e-01 3.4634081081835610e+00 6.2634335653482118e+00 1.2648809054012430e+01 0 0 0
100 1 2 1.9299857873707110e-01 8.8209650126180570e+00 2.7151858792735716e+01 4.8190013044549254e+00 0 0 0
101 1 2 2.1070339625493223e-01 3.7348140959707479e+00 2.2246344938712554e+01 1.1987470216150768e+01 0 0 0
103 1 2 2.1790974741926794e-01 1.6120200968843658e+01 -2.6443732595246643e+00 7.4876358357779775e+00 -1 0 0
104 1 2 1.9066955447692474e-01 8.5151556404731394e+00 1.1323348595410893e+01 5.1435566725025881e+00 0 0 0
106 1 2 1.9648357538263406e-01 3.5075725653810781e+00 1.9044744711727724e+01 7.4262154382929313e-01 0 0 0
107 1 2 2.0032682947319116e-01 7.4879169362893272e+00 1.3910435130760103e+01 7.7788492998345138e+00 0 0 0
110 1 2 2.0198718674636101e-01 3.5043677878988304e+00 2.8313534899394774e+00 6.1981119871592849e-01 0 0 0
111 1 2 2.0709150998580833e-01 7.1305555517811801e+00 -2.4532624507093947e+00 7.1282644297815816e+00 0 0 0
113 1 2 2.2214570654230761e-01 2.1311502660731074e-01 7.4084491447737584e+00 9.8369506853214155e+00 0 0 0
115 1 2 2.2907707026016369e-01 1.7221760035340445e+00 1.4722492197843835e+01 1.0948147273504562e+01 0 0 0
116 1 2 2.1785325805907080e-01 5.6100779568419963e+00 2.6532739820484402e+01 2.1861821250690672e+00 0 0 0
117 1 2 2.2583905006271943e-01 5.7236633866360065e-01 2.3413080693143428e+01 9.6263589353536556e+00 0 0 0
119 1 2 2.1091540087515800e-01 9.8727759500528700e-01 -1.0438611889924294e+00 1.0415630063623384e+01 0 0 0
120 1 2 2.2024129749607546e-01 5.5164883410479293e+00 1.0484694500626816e+01 2.4847884018418154e+00 0 0 0
121 1 2 2.1518633399488946e-01 8.3673952535406126e+00 7.5543826022166147e+00 9.8421077435172375e+00 0 0 0
122 1 2 2.2031133507278239e-01 6.8768942669396020e+00 1.7476010372267439e+01 2.7000801169412409e+00 0 0 0
123 1 2 1.9279266513113524e-01 1.0624192499343071e+01 1.6245811562457572e+01 9.0883227800765791e+00 0 0 0
125 1 2 2.0949214981962072e-01 8.8850149835022378e+00 2.3468058601644906e+01 9.7861489463864704e+00 0 0 0
126 1 2 2.1419827025060553e-01 6.3884565787406267e+00 1.5780639625157624e+00 3.1850435884432460e+00 0 0 0
127 1 2 2.0984763309018803e-01 1.0362967766001194e+01 -7.4147342190080590e-01 9.1982814190532061e+00 0 0 0
129 1 2 2.0544061187494156e-01 3.3763012331643449e+00 6.1078053538144008e+00 7.4694563889037111e+00 0 0 0
132 1 2 1.7937947866780027e-01 8.8313485507012395e+00 2.7225743197190361e+01 -3.7127690556529430e-01 0 -1 0
133 1 2 1.8481071333802468e-01 3.4484005966208500e+00 2.2485092443168966e+01 6.6356045435711080e+00 0 0 0
134 1 2 1.8358889465075057e-01 1.3653361396845945e+01 2.9002652965887359e+00 5.7350483289706764e+00 0 0 0
136 1 2 1.8484962057669849e-01 8.8417066134350897e+00 1.0352611881481709e+01 5.0789842537259544e-02 0 0 0
138 1 2 2.2098016379827540e-01 4.1467705941177462e+00 1.8794847478347190e+01 5.7618394869833462e+00 0 0 0
139 1 2 2.1166119888356888e-01 8.6563491862017266e+00 1.5230434631744963e+01 1.2695538455633118e+01 0 0 0
142 1 2 1.9314061426029666e-01 3.1581316964520072e+00 2.4857447042971037e+00 5.8278890571652564e+00 0 0 0
143 1 2 1.7669002727243627e-01 7.5684480751098313e+00 -1.6895712714131215e+00 1.2254510458156060e+01 0 1 0
145 1 2 2.0856726075568921e-01 5.0124704960404101e+00 5.5100515450467178e+00 1.1319553865430789e+01 0 0 0
146 1 2 2.1700698449655159e-01 1.1079978328710006e+01 2.0401682959274591e+01 2.3194174043115767e+00 0 0 0
148 1 2 2.2425011485155233e-01 1.0523044652355297e+01 2.7567217593336984e+01 3.3382646997552659e+00 0 0 0
149 1 2 2.1736370069595595e-01 5.3105582253386965e+00 2.1723120430597934e+01 1.0490854011389439e+01 0 0 0
150 1 2 2.1537147331353754e-01 1.1266592789712208e+01 4.3603450312511658e+00 2.4058715248458662e+00 0 0 0
152 1 2 2.1594033526317596e-01 1.0351176545959127e+01 1.1478399406322660e+01 3.7986902174843360e+00 0 0 0
154 1 2 2.0778317560551410e-01 2.1316633828581959e+00 1.9546756109911254e+01 2.3098533004654711e+00 0 0 0
155 1 2 2.0373604394833111e-01 6.4355488691555136e+00 1.3237561205065564e+01 9.6851363356982905e+00 0 0 0
156 1 2 2.0907489821657371e-01 1.3813774534540135e+00 2.7777268919634206e+01 3.6893308243372473e+00 0 0 0
158 1 2 2.0350330008238737e-01 1.7186624259765573e+00 3.3429413577168168e+00 1.9301970104034063e+00 0 0 0
159 1 2 2.2378364644246884e-01 5.6677149001212124e+00 -3.0534129372043952e+00 8.8061929309482334e+00 0 0 0
160 1 2 2.1718784535844921e-01 8.1847782170620176e-01 1.2580708823676765e+01 4.3744733788697099e+00 0 0 0
161 1 2 2.1017287887549527e-01 4.4202310509589138e+00 8.1740703709955458e+00 7.7615973567686858e+00 0 0 0
162 1 2 2.1270158004332448e-01 1.1420895911770646e+01 1.7029684639556127e+01 4.7429795337317451e+00 0 0 0
164 1 2 2.0253303953395355e-01 9.6203516632705721e+00 2.4988626365200176e+01 -1.7460951741280428e-02 0 0 0
165 1 2 2.0211575699022655e-01 4.7312428071697123e+00 2.4305749634811711e+01 7.3369012883629345e+00 0 0 0
166 1 2 2.1162762331319626e-01 1.2024919401724976e+01 1.2044199255802948e+00 4.9002944041486032e+00 0 0 0
168 1 2 1.8661491327764118e-01 9.5908101626771387e+00 8.4488205488528543e+00 9.4940306131026597e-01 0 0 0
170 1 2 2.1609088224520373e-01 2.7367058210990431e+00 1.6867650987107186e+01 5.3353226938775888e+00 0 0 0
171 1 2 2.0257246026392020e-01 6.9392780393727858e+00 1.6782082382863464e+01 1.2131346992996201e+01 0 0 0
172 1 2 2.0946170961484811e-01 6.8176136292435197e-01 2.5118287803259712e+01 6.6237497516507116e-01 0 0 0
174 1 2 2.1233994786624630e-01 1.9156187905221329e+00 6.9099002359268358e-01 4.9775095489678094e+00 0 0 0
175 1 2 1.9861613655759197e-01 6.0416757182930976e+00 -2.3573673425954844e-02 1.1620447393759346e+01 0 0 0
176 1 2 2.0911308253564992e-01 6.2307395251011255e-01 1.0033290635188461e+01 1.1891820960713837e+00 0 0 0
177 1 2 2.2284388695160648e-01 1.4224440454170542e+00 9.4401092355683502e+00 1.0559133351811012e+01 0 0 0
179 1 2 2.3517555010209612e-01 1.1733061948719239e+00 1.6956954743329327e+01 1.0087647679165007e+01 0 0 0
180 1 2 2.2791390986665722e-01 6.3608505792775638e+00 2.4452825593029903e+01 2.7412194588431213e+00 0 0 0
181 1 2 2.1173643755883564e-01 1.6714361116343552e+00 2.5474207528868170e+01 9.9967321501474657e+00 0 0 0
183 1 2 2.1880740603934179e-01 -5.1081553774854349e-02 8.2358550750144666e-01 9.5213767253035915e+00 0 0 0
184 1 2 2.1940823266910389e-01 6.0573493203592026e+00 8.4611672906121544e+00 3.3734839612645549e+00 0 0 0
186 1 2 2.2315611259129120e-01 5.3763783450736513e+00 1.5579174980031812e+01 2.4065739945022182e+00 0 0 0
187 1 2 2.3579207478270281e-01 8.8161177808328421e+00 1.7804901296857043e+01 8.5118760526740029e+00 0 0 0
190 1 2 2.2124248573818334e-01 5.2033043922562356e+00 -4.3297132246950154e-01 2.5694653965624648e+00 0 0 0
191 1 2 2.1505869780364728e-01 9.0242210823232760e+00 1.1852207935079715e+00 8.7437272451942896e+00 0 0 0
193 1 3 -1.4088829021833635e-01 1.5386367917193871e+00 6.2017725390131098e+00 1.1101900236919560e+01 0 0 0
195 1 3 -1.5977006030930158e-01 1.5231793108327518e-01 1.3810222404056521e+01 9.7814760354029460e+00 0 0 0
196 1 3 -1.5532288695095883e-01 7.2149412284269712e+00 2.7604724943083671e+01 3.3216592398982199e+00 0 0 0
197 1 3 -1.5512767520535098e-01 2.1122404293337484e+00 2.2260512083209377e+01 1.0628422752157810e+01 0 0 0
199 1 3 -1.6110686525808815e-01 -2.4074356654326023e-01 -2.5260971366262845e+00 9.2876035316478855e+00 0 0 0
200 1 3 -1.4750621838869274e-01 7.0310271178854773e+00 1.1575405929125791e+01 3.5702467729975584e+00 0 0 0
201 1 3 -1.4771481735693573e-01 9.8828100395775742e+00 6.1031718306577698e+00 1.0459247538707158e+01 0 0 0
202 1 3 -1.4564408820551245e-01 5.4656063052230177e+00 1.8918814479748196e+01 1.8613329349727032e+00 0 0 0
203 1 3 -1.6255531162370682e-01 9.3454875614817752e+00 1.4550972017453869e+01 8.6602691774058620e+00 0 0 0
205 1 3 -1.4134543145175901e-01 9.9826317492471830e+00 2.1709141227003855e+01 1.0282855004973468e+01 0 0 0
206 1 3 -1.5731443274260959e-01 4.9546267305533513e+00 2.8570902745202069e+00 2.0372804029497491e+00 0 0 0
207 1 3 -1.5953763364409557e-01 8.9149309839299296e+00 -2.0346800262782843e+00 8.3617383355980941e+00 0 0 0
209 1 3 9.1775842938336433e-02 5.3204953182196557e-01 6.4074198645596123e+00 1.2324844522706087e+01 0 0 0
211 1 3 9.4734888625457606e-02 1.2694282632736464e+00 1.3446396079535237e+01 8.6556219819042806e+00 0 0 0
212 1 3 8.7615430885397361e-02 6.1259809040553890e+00 2.7748592212450120e+01 4.4708313798181791e+00 0 0 0
213 1 3 9.8085101090306409e-02 1.0702337009651222e+00 2.2065815182620085e+01 1.1817749494710672e+01 0 0 0
215 1 3 8.8953413475635124e-02 1.0065514205552022e+00 -2.8212320081524398e+00 8.3625319323014722e+00 0 0 0
216 1 3 8.9530198238414266e-02 5.9630015148559403e+00 1.1884828996727622e+01 4.7380478218359645e+00 0 0 0
217 1 3 9.7479412008524724e-02 8.9096520177218963e+00 5.8235921828105504e+00 1.1730509333543075e+01 0 0 0
218 1 3 9.7935189162118449e-02 6.3802446768346464e+00 1.8811985261315687e+01 5.3467055856343293e-01 0 0 0
219 1 3 1.0219563036960279e-01 1.0046536095271106e+01 1.4293702373847715e+01 7.2221792261145259e+00 0 0 0
221 1 3 8.4933895986399666e-02 8.9105021539412625e+00 2.1554514750150094e+01 1.1441089450468130e+01 0 0 0
222 1 3 9.5961902773249452e-02 6.1327473662491814e+00 3.0624450083406352e+00 9.4037643712226782e-01 0 0 0
223 1 3 9.8868961566630817e-02 9.8211868209639004e+00 -2.2558414994777207e+00 7.0371222124540687e+00 0 0 0
225 1 3 -1.7190245579160690e-01 1.6757320841811105e+00 6.6913183198672392e+00 8.5542694831605637e+00 0 0 0
227 1 3 -1.7264442397817595e-01 2.1213803902157768e-01 1.4667569304176475e+01 1.2348724471335972e+01 0 0 0
228 1 3 -1.8439987332691113e-01 7.0718769913157518e+00 2.6935256718242787e+01 7.7517481702747104e-01 0 0 0
229 1 3 -1.6785181233836005e-01 1.7903603358145279e+00 2.2869998595002794e+01 8.0337718122886894e+00 0 0 0
231 1 3 -1.8348922893712730e-01 -6.2641965879539785e-01 -1.5359851346930640e+00 1.1758241674142358e+01 0 0 0
232 1 3 -1.7843522186077027e-01 7.0144928474614199e+00 1.0478289009052695e+01 1.0851849842367194e+00 0 0 0
234 1 3 -1.6379843572327343e-01 5.7595278638827985e+00 1.8120123188810869e+01 4.3693410813849418e+00 0 0 0
235 1 3 -1.8215795739306873e-01 9.7941467599961385e+00 1.5806746842710957e+01 1.0969088166952913e+01 0 0 0
238 1 3 -1.7183721807171312e-01 4.9385281848982059e+00 2.1338721301686201e+00 4.6838674787203560e+00 0 0 0
239 1 3 -1.7848927034322670e-01 9.1544514544321611e+00 -1.3350213239838409e+00 1.0853854245414970e+01 0 0 0
241 1 3 1.0013703194632748e-01 7.1741115314625992e-01 5.5281099768866593e+00 7.9681680175142340e+00 0 0 0
243 1 3 1.0354501814337694e-01 6.6741409919831884e-01 1.3216402931559173e+01 1.2957957905467334e+01 0 0 0
244 1 3 1.0442889346941972e-01 6.3408539707599649e+00 2.8225820988344640e+01 1.5469114829434016e-01 0 0 0
245 1 3 1.0407589104377925e-01 8.6219110380411701e-01 2.1543459665882278e+01 7.7433296432294920e+00 0 0 0
247 1 3 1.0715486922450219e-01 3.1639821861450734e-01 -2.4824791755061284e+00 1.2656031566098585e+01 0 0 0
248 1 3 1.0428653369545625e-01 6.5882474715835082e+00 1.1755146732185787e+01 1.9082953669724434e-01 0 0 0
249 1 3 9.8326449091511586e-02 8.5108208104398209e+00 6.3200129299060741e+00 7.5504935679176013e+00 0 0 0
250 1 3 9.9295795993005309e-02 6.7144967782414522e+00 1.9317666370942032e+01 4.7871565033138408e+00 0 0 0
251 1 3 9.8607320582207086e-02 1.1116763045024181e+01 1.4972605461884658e+01 1.1355919999056315e+01 0 0 0
253 1 3 1.0689988791892641e-01 9.0097171318602154e+00 2.2390964877660949e+01 7.2524736772667158e+00 0 0 0
254 1 3 1.0458072331034216e-01 5.9633839242880393e+00 3.1678156317569961e+00 5.3737790359802506e+00 0 0 0
255 1 3 9.9194425737558878e-02 1.0369406320694901e+01 -2.1587580126481969e+00 1.1542759863677931e+01 0 0 0
257 1 3 -1.5151504164974741e-01 3.8093729913659740e+00 5.3565530795601468e+00 9.4770877011361385e+00 0 0 0
260 1 3 -1.7096652076518298e-01 9.4345065277018190e+00 2.7855198173760133e+01 1.5718825301679853e+00 0 -1 0
261 1 3 -1.5237479237508603e-01 4.0189406364791758e+00 2.1550008969796572e+01 8.4511131581462049e+00 0 0 0
264 1 3 -1.5562472713053588e-01 9.3033831040972199e+00 1.1559614561218496e+01 1.9508007148992075e+00 0 0 0
266 1 3 -1.6181282898008720e-01 3.6585512596076053e+00 1.9780934168164901e+01 4.0724040906522720e+00 0 0 0
267 1 3 -1.6521957810963944e-01 7.9837479110595613e+00 1.3899262104819037e+01 1.1148379654952764e+01 0 0 0
268 1 3 -1.5678001287014412e-01 1.7231106474077727e+01 2.7640733520712534e+01 1.8032940570656906e+00 -1 -1 0
270 1 3 -1.4199834337738942e-01 2.9259550833630521e+00 3.6243462885791349e+00 4.0137945067480780e+00 0 0 0
271 1 3 -1.6891070784495885e-01 7.0744685077457046e+00 -2.9761137265995536e+00 1.0586074516163736e+01 0 1 0
272 1 3 -1.6545206166284043e-01 1.6860182642615456e+01 1.2466977824572623e+01 2.3291067200196429e+00 -1 0 0
273 1 3 1.0530427619051934e-01 3.0184297209189603e+00 3.9416597141023280e+00 9.4158885921361293e+00 0 0 0
275 1 3 1.1095296182192095e-01 1.5682973580856828e+01 1.2344858207178754e+01 1.1567691589030842e+01 -1 0 0
276 1 3 1.0636805389985829e-01 8.8140859817192627e+00 -2.7109368356593553e+00 1.8625861431316126e+00 0 0 0
277 1 3 1.0923960644579582e-01 3.2380160761204180e+00 2.0210185904453361e+01 8.5262941092006042e+00 0 0 0
279 1 3 9.9781291810923489e-02 1.6000035853279936e+01 2.7611965006578046e+01 1.1002620588902984e+01 -1 0 0
280 1 3 1.1555497028454387e-01 8.7774647355025159e+00 1.3042049079233191e+01 1.7196850959396821e+00 0 0 0
282 1 3 1.0323975464381158e-01 4.5551777247929426e+00 2.1066023740763349e+01 3.6476021620529480e+00 0 0 0
283 1 3 1.0376968675479596e-01 9.0297643668633203e+00 1.2679023351831301e+01 1.1051567032739667e+01 0 0 0
286 1 3 1.1052975252384586e-01 3.7882287824171668e+00 4.9530664087663254e+00 3.8627690506126111e+00 0 0 0
287 1 3 1.0557150433950033e-01 8.0662421697131155e+00 2.7800910822999700e+01 1.0227752133082392e+01 0 0 0
289 1 3 -1.5168190467025439e-01 5.0410443900252329e+00 7.5153408647226652e+00 9.6320077323144204e+00 0 0 0
290 1 3 -1.6672647844863556e-01 1.1049236673483277e+01 1.8394214610318045e+01 3.1566569199082752e+00 0 0 0
292 1 3 -1.4767675548653908e-01 1.0178147204410779e+01 2.5507776007097583e+01 1.9273560630585234e+00 0 0 0
293 1 3 -1.6154346673120176e-01 5.1895715752819989e+00 2.3606604090494365e+01 9.3452814785471432e+00 0 0 0
294 1 3 -1.7247349359745900e-01 1.1444683258979081e+01 2.4389956926549479e+00 3.3298324897191973e+00 0 0 0
296 1 3 -1.6048751794452587e-01 9.9700879067808739e+00 9.3178164689008156e+00 2.9200857514426533e+00 0 0 0
298 1 3 -1.7763732294631263e-01 2.2337296223319196e+00 1.7792569353649597e+01 3.4591673716100773e+00 0 0 0
299 1 3 -1.4907625539024144e-01 6.0965815376441252e+00 1.5521949941740218e+01 1.0662439504384487e+01 0 0 0
300 1 3 -1.5455730726850980e-01 1.4153347113253671e+00 2.5943986853678592e+01 2.5236224433750771e+00 0 0 0
302 1 3 -1.8308593954559801e-01 1.7083724531845559e+00 1.5521894836483909e+00 3.1510661859822053e+00 0 0 0
303 1 3 -1.6124495050714949e-01 5.5739584133300184e+00 -9.9623901933751124e-01 9.8220873699058373e+00 0 0 0
304 1 3 -1.5781803556009369e-01 1.1158670833779973e+00 1.0799174989184621e+01 3.0705408442693876e+00 0 0 0
305 1 3 9.2890417370544112e-02 5.7201237965785801e+00 8.5029197717554759e+00 1.0667426708898796e+01 0 0 0
306 1 3 1.0000414373225881e-01 1.0287860299638091e+01 1.7708855848113561e+01 1.9203453184132888e+00 0 0 0
308 1 3 1.0601789956535901e-01 1.0752381158199324e+01 2.4439309584391879e+01 2.9720770063153976e+00 0 0 0
309 1 3 9.6298739071301626e-02 6.0417650296585128e+00 2.4714433263560860e+01 1.0152257485581014e+01 0 0 0
310 1 3 1.0576665815097611e-01 1.0418580369453107e+01 1.5767527968078703e+00 2.3788955966682988e+00 0 0 0
312 1 3 9.7456692308529810e-02 1.0643494506417200e+01 8.4100780073977806e+00 4.0416263962630596e+00 0 0 0
314 1 3 9.7982872274999314e-02 1.0478865882055857e+00 1.6882777936711250e+01 2.8560046539878221e+00 0 0 0
315 1 3 1.0305860635410799e-01 4.9958176233079836e+00 1.6124438695319860e+01 9.6682381398525052e+00 0 0 0
316 1 3 9.9991502186141903e-02 2.5333498271266617e+00 2.5013893182140880e+01 3.1910866954310628e+00 0 0 0
318 1 3 8.8336482767942009e-02 1.0029328672677975e+00 4.6821927872007008e-01 2.1587244011082118e+00 0 0 0
319 1 3 1.0604123933001988e-01 4.5320359413365097e+00 -1.1492878026290754e-01 8.9883032343057447e+00 0 0 0
320 1 3 1.0776775124276415e-01 2.1557842870291695e+00 9.8784305950637812e+00 3.9443582824427912e+00 0 0 0
321 1 3 -1.6304772959448605e-01 2.9364098937760450e+00 9.0237723104648264e+00 9.1047126787202366e+00 0 0 0
324 1 3 -1.6320838814726701e-01 7.8778154861663490e+00 2.4435421779615048e+01 1.2254069053844803e+00 0 0 0
325 1 3 -1.6787837438022601e-01 3.1603339505794241e+00 2.5155863957632814e+01 8.4396455729886437e+00 0 0 0
328 1 3 -1.7320980889251347e-01 7.7393139948413658e+00 8.1430820739543233e+00 2.0934265204138147e+00 0 0 0
330 1 3 -1.6800713035909284e-01 4.0756775365439237e+00 1.6023197536293857e+01 3.9100585585827137e+00 0 0 0
331 1 3 -1.7104185941549083e-01 7.8183457563627430e+00 1.7506618358081244e+01 1.0372139740531546e+01 0 0 0
332 1 3 -1.5627081836975393e-01 1.7091477112578538e+01 2.4055636310951460e+01 2.1216185877497424e+00 -1 0 0
334 1 3 -1.6432155579886282e-01 3.6959241227486892e+00 -8.9806824059965429e-02 4.0682536475180839e+00 0 0 0
335 1 3 -1.6971312289643509e-01 7.4770241717705126e+00 7.5134761361922919e-01 1.0315988057394096e+01 0 0 0
336 1 3 -1.6019735848999278e-01 1.7003991211524415e+01 8.7640032808139736e+00 2.5664096695683267e+00 -1 0 0
337 1 3 9.5603472112965868e-02 3.6888504415362604e+00 1.0413449036735688e+01 9.3056337104753908e+00 0 0 0
338 1 3 1.0193943192223627e-01 1.2000102905260167e+01 1.5325009600331096e+01 2.8197061027549606e+00 0 0 0
340 1 3 9.2794208105461240e-02 8.4409924733166122e+00 2.2969765736551093e+01 1.3770490624050593e+00 0 0 0
341 1 3 9.7925047644336849e-02 3.8425614950527418e+00 2.6602739570978549e+01 8.6343473488032885e+00 0 0 0
342 1 3 1.0372642046139310e-01 1.2583130378087839e+01 -7.6401740278156760e-01 3.1620211236626186e+00 0 0 0
344 1 3 1.0295264527817707e-01 8.0687768896220735e+00 6.6789527850350314e+00 2.6973735715966867e+00 0 0 0
346 1 3 1.0348468565505375e-01 3.2598763115861180e+00 1.4636906353174613e+01 3.6936670482220668e+00 0 0 0
347 1 3 1.0440943392939622e-01 6.9240138486474727e+00 1.8857643169763900e+01 1.0261281566338804e+01 0 0 0
348 1 3 1.0129279414038458e-01 6.9170447319032113e-01 2.2945917172588825e+01 2.2514836440884127e+00 0 0 0
350 1 3 1.0054530074040434e-01 2.9956789353269402e+00 -1.5299890206004669e+00 3.8531084360236809e+00 0 0 0
351 1 3 9.6266185311287472e-02 6.5852686401599954e+00 2.1112216271221129e+00 1.0262369981551446e+01 0 0 0
352 1 3 1.0006749296520229e-01 5.5511038511757049e-01 7.5674866666121723e+00 2.8052291336247075e+00 0 0 0
353 1 3 -1.4892067873590695e-01 2.9954829068869753e+00 8.1717485667466274e+00 1.1662984433493005e+01 0 0 0
356 1 3 -1.3893794621813296e-01 8.0733406867872599e+00 2.5181225574189337e+01 3.8040048565409830e+00 0 0 0
357 1 3 -1.3948012823986483e-01 3.1910301815292472e+00 2.4485648901779427e+01 1.1056834730845665e+01 0 0 0
360 1 3 -1.5699677866444678e-01 7.6491447684734490e+00 9.2880717909187904e+00 4.5152110338455138e+00 0 0 0
362 1 3 -1.5969502256486412e-01 3.9590281367083531e+00 1.6994088590754277e+01 1.3400238177751655e+00 0 0 0
363 1 3 -1.4832266364616042e-01 7.5621718312136741e+00 1.6228886074936227e+01 8.0314161444351910e+00 0 0 0
366 1 3 -1.4634900839993203e-01 3.8488982715159530e+00 6.7146430330943474e-01 1.4654519272886612e+00 0 0 0
367 1 3 -1.3609896953882275e-01 7.6082065647478707e+00 -2.9789642759877832e-02 7.7461528211073585e+00 0 0 0
369 1 3 9.3143290273958679e-02 2.2728489550051281e+00 8.6148037452075403e+00 1.2994870716901040e+01 0 0 0
371 1 3 9.1225447061974288e-02 5.4563497950903650e-01 1.6193931586797671e+01 7.6863393874378314e+00 0 0 0
372 1 3 8.3741457984868942e-02 7.2499975061575110e+00 2.5097041000125014e+01 5.1510253824435281e+00 0 0 0
373 1 3 7.7223896012505275e-02 2.4684391468958955e+00 2.4737268502761374e+01 1.2451343612400855e+01 0 0 0
375 1 3 8.1947032354275556e-02 -2.3354860736029515e-01 -1.5797801795258026e-01 7.1216353004253889e+00 0 0 0
376 1 3 8.8008304519037475e-02 6.6535541781512011e+00 9.1768669606533511e+00 5.7750959887704152e+00 0 0 0
378 1 3 8.9551138165026883e-02 4.6050643193036498e+00 1.6633996982706517e+01 -8.5166472694405471e-02 0 0 0
379 1 3 8.9638324459006519e-02 8.1241936506308416e+00 1.6464745505322998e+01 6.5483778419154604e+00 0 0 0
382 1 3 8.9904530771947849e-02 4.6572866396594677e+00 2.0709290761161236e-01 1.4982928891612746e-01 0 0 0
383 1 3 8.7059799289248396e-02 8.5666416012509607e+00 2.1014391678522903e-01 6.5299804704325002e+00 0 0 0
385 1 4 -1.0372249884127245e-01 -4.6710250331626058e-01 7.2005273960630198e+00 1.2262027613955722e+01 0 0 0
387 1 4 -9.7627483565750628e-02 2.4930703861026364e+00 1.3685647646698481e+01 8.8381272752817903e+00 0 0 0
388 1 4 -1.2874389893188287e-01 5.0468302297224552e+00 2.7055880240347950e+01 4.2652834546456875e+00 0 0 0
389 1 4 -9.0888760175929381e-02 -1.7662662386305761e-01 2.2293701707942720e+01 1.1662741868954067e+01 0 0 0
391 1 4 -1.0571876952137692e-01 2.0387742306867347e+00 -2.0361305795807656e+00 8.3880927916946639e+00 0 0 0
392 1 4 -8.7420070156256330e-02 4.6716886406992595e+00 1.1770254164007744e+01 4.5997343084454503e+00 0 0 0
393 1 4 -1.4029947547092017e-01 7.7730701655978107e+00 6.4432257875555834e+00 1.1805238076796208e+01 0 0 0
394 1 4 -1.2575085771658076e-01 7.1574371957589218e+00 1.7765104934605535e+01 4.4708818127405925e-01 0 0 0
397 1 4 -1.3355790470526574e-01 7.7543702256484037e+00 2.2050285350833267e+01 1.1159419186673958e+01 0 0 0
398 1 4 -1.0193350051132168e-01 7.3168192964567673e+00 2.5651712590394471e+00 1.1247689880440115e+00 0 0 0
401 1 4 -1.0844784524450976e-01 2.8049438975109506e+00 5.5251751612245226e+00 -2.4203697918136477e-01 0 0 1
403 1 4 -1.2890967174186366e-01 9.3143445782657319e-01 1.2577235801875577e+01 7.7666632929925683e+00 0 0 0
404 1 4 -1.2251485854168312e-01 5.9120624126257857e+00 -3.2581406459569280e+00 5.1346032476193786e+00 0 1 0
405 1 4 -1.1114172413320983e-01 1.4837335997495429e+00 2.1423210583380833e+01 1.2861174666494712e+01 0 0 0
407 1 4 -1.2067977576858552e-01 1.1636675636360294e+00 2.8232639178544268e+01 7.6077738373850625e+00 0 -1 0
408 1 4 -1.2314825180681825e-01 6.4438040143198529e+00 1.2525885740457934e+01 5.7180656177897804e+00 0 0 0
409 1 4 -1.4213934283721685e-01 9.3117837281475193e+00 5.0158083658962784e+00 1.2604024953566539e+01 0 0 0
410 1 4 -1.0048425029836046e-01 6.4993679798768964e+00 1.9789851299793359e+01 -2.5899252873986156e-01 0 0 0
411 1 4 -1.3266908822624313e-01 9.3968772214063208e+00 1.3666443885703984e+01 6.3131496774766171e+00 0 0 0
413 1 4 -1.2174377833031280e-01 9.0617453423998970e+00 2.0768360285114561e+01 1.2485997738839838e+01 0 0 0
414 1 4 -1.3699610636212997e-01 5.9296998318798995e+00 3.9452942382555332e+00 5.3925980209310165e-02 0 0 0
415 1 4 -1.3066643789933224e-01 9.2824893183220887e+00 -2.7226343348845994e+00 5.9850137369070460e+00 0 0 0