ITEM: TIMESTEP
0
ITEM: NUMBER OF ATOMS
448
ITEM: BOX BOUNDS xy xz yz pp pp pp
-2.4186686450000000e-01 1.3879200000000001e+01 8.1284706647000001e-16
0.0000000000000000e+00 1.3274800000000003e+01 -2.4186686450000000e-01
0.0000000000000000e+00 2.2679910358299999e+01 1.4036330231000001e-15
ITEM: ATOMS id type xs ys zs
1 1 0.343944 0.120978 0.264308
2 2 0.237907 0.127714 0.258688
3 3 0.217157 0.154364 0.213839
4 3 0.194088 0.0933052 0.293721
5 2 0.410842 0.148371 0.217556
6 3 0.49076 0.144321 0.230054
7 3 0.372695 0.17452 0.177477
8 1 0.381997 0.0875077 0.317723
9 2 0.312576 0.0658777 0.36763
10 4 0.346693 0.0773342 0.421393
11 4 0.22608 0.0252472 0.359881
12 2 0.488766 0.0746912 0.325279
13 4 0.518895 0.0322035 0.375117
14 4 0.552336 0.104693 0.286014
15 1 0.406056 0.370978 0.485692
16 2 0.512093 0.377714 0.491312
17 3 0.532843 0.404364 0.536161
18 3 0.555912 0.343305 0.456279
19 2 0.339158 0.398371 0.532444
20 3 0.25924 0.394321 0.519946
21 3 0.377305 0.42452 0.572523
22 1 0.368003 0.337508 0.432277
23 2 0.437424 0.315878 0.38237
24 4 0.403307 0.327334 0.328607
25 4 0.52392 0.275247 0.390119
26 2 0.261234 0.324691 0.424721
27 4 0.231105 0.282204 0.374883
28 4 0.197664 0.354693 0.463986
29 1 0.156056 0.379022 0.235692
30 2 0.262093 0.372286 0.241312
31 3 0.282843 0.345636 0.286161
32 3 0.305912 0.406695 0.206279
33 2 0.0891582 0.35163 0.282444
34 3 0.00924032 0.355679 0.269946
35 3 0.127305 0.32548 0.322523
36 1 0.118004 0.412492 0.182277
37 2 0.187424 0.434122 0.132371
38 4 0.153307 0.422666 0.0786072
39 4 0.27392 0.474753 0.140119
40 2 0.0112336 0.425309 0.174721
41 4 0.981105 0.467796 0.124883
42 4 0.947663 0.395307 0.213986
43 1 0.0939443 0.129022 0.014308
44 2 0.987906 0.122286 0.00868762
45 3 0.967157 0.0956358 0.963839
46 3 0.944088 0.156695 0.0437212
47 2 0.160842 0.101629 0.967556
48 3 0.24076 0.105679 0.980054
49 3 0.122694 0.0754795 0.927477
50 1 0.131997 0.162492 0.0677232
51 2 0.0625762 0.184122 0.11763
52 4 0.0966927 0.172666 0.171393
53 4 0.97608 0.224753 0.109881
54 2 0.238766 0.175309 0.075279
55 4 0.268895 0.217796 0.125117
56 4 0.302336 0.145307 0.0360142
57 1 0.843944 0.120978 0.264308
58 2 0.737907 0.127714 0.258688
59 3 0.717157 0.154364 0.213839
60 3 0.694088 0.0933052 0.293721
61 2 0.910842 0.148371 0.217556
62 3 0.99076 0.144321 0.230054
63 3 0.872695 0.17452 0.177477
64 1 0.881997 0.0875077 0.317723
65 2 0.812576 0.0658777 0.36763
66 4 0.846693 0.0773342 0.421393
67 4 0.72608 0.0252472 0.359881
68 2 0.988766 0.0746912 0.325279
69 4 0.0188951 0.0322035 0.375117
70 4 0.0523365 0.104693 0.286014
71 1 0.906056 0.370978 0.485692
72 2 0.0120937 0.377714 0.491312
73 3 0.0328434 0.404364 0.536161
74 3 0.0559117 0.343305 0.456279
75 2 0.839158 0.398371 0.532444
76 3 0.75924 0.394321 0.519946
77 3 0.877306 0.42452 0.572523
78 1 0.868003 0.337508 0.432277
79 2 0.937424 0.315878 0.38237
80 4 0.903307 0.327334 0.328607
81 4 0.0239203 0.275247 0.390119
82 2 0.761234 0.324691 0.424721
83 4 0.731105 0.282204 0.374883
84 4 0.697664 0.354693 0.463986
85 1 0.656056 0.379022 0.235692
86 2 0.762093 0.372286 0.241312
87 3 0.782843 0.345636 0.286161
88 3 0.805912 0.406695 0.206279
89 2 0.589158 0.35163 0.282444
90 3 0.50924 0.355679 0.269946
91 3 0.627305 0.325479 0.322523
92 1 0.618003 0.412492 0.182277
93 2 0.687424 0.434122 0.132371
94 4 0.653308 0.422666 0.0786071
95 4 0.77392 0.474753 0.140119
96 2 0.511234 0.425309 0.174721
97 4 0.481105 0.467796 0.124883
98 4 0.447664 0.395307 0.213986
99 1 0.593944 0.129022 0.014308
100 2 0.487906 0.122286 0.00868768
101 3 0.467157 0.0956358 0.963839
102 3 0.444088 0.156695 0.0437212
103 2 0.660842 0.101629 0.967556
104 3 0.74076 0.105679 0.980054
105 3 0.622695 0.0754796 0.927477
106 1 0.631997 0.162492 0.0677231
107 2 0.562576 0.184122 0.11763
108 4 0.596693 0.172666 0.171393
109 4 0.47608 0.224753 0.109881
110 2 0.738766 0.175309 0.075279
111 4 0.768895 0.217796 0.125117
112 4 0.802336 0.145307 0.0360142
113 1 0.343944 0.620978 0.264308
114 2 0.237907 0.627714 0.258688
115 3 0.217157 0.654364 0.213839
116 3 0.194088 0.593305 0.293721
117 2 0.410842 0.648371 0.217556
118 3 0.49076 0.644321 0.230054
119 3 0.372695 0.67452 0.177477
120 1 0.381997 0.587508 0.317723
121 2 0.312576 0.565878 0.36763
122 4 0.346693 0.577334 0.421393
123 4 0.22608 0.525247 0.359881
124 2 0.488766 0.574691 0.325279
125 4 0.518895 0.532204 0.375117
126 4 0.552336 0.604693 0.286014
127 1 0.406056 0.870978 0.485692
128 2 0.512093 0.877714 0.491312
129 3 0.532843 0.904364 0.536161
130 3 0.555912 0.843305 0.456279
131 2 0.339158 0.898371 0.532444
132 3 0.25924 0.894321 0.519946
133 3 0.377305 0.92452 0.572523
134 1 0.368003 0.837508 0.432277
135 2 0.437424 0.815878 0.38237
136 4 0.403307 0.827334 0.328607
137 4 0.52392 0.775247 0.390119
138 2 0.261234 0.824691 0.424721
139 4 0.231105 0.782204 0.374883
140 4 0.197664 0.854693 0.463986
141 1 0.156056 0.879022 0.235692
142 2 0.262093 0.872286 0.241312
143 3 0.282843 0.845636 0.286161
144 3 0.305912 0.906695 0.206279
145 2 0.0891583 0.851629 0.282444
146 3 0.00924031 0.855679 0.269946
147 3 0.127305 0.82548 0.322523
148 1 0.118004 0.912492 0.182277
149 2 0.187424 0.934122 0.132371
150 4 0.153307 0.922666 0.0786072
151 4 0.27392 0.974753 0.140119
152 2 0.0112336 0.925309 0.174721
153 4 0.981105 0.967797 0.124883
154 4 0.947663 0.895307 0.213986
155 1 0.0939443 0.629022 0.014308
156 2 0.987906 0.622286 0.0086876
157 3 0.967157 0.595636 0.963839
158 3 0.944088 0.656695 0.0437212
159 2 0.160842 0.601629 0.967556
160 3 0.24076 0.605679 0.980054
161 3 0.122695 0.57548 0.927477
162 1 0.131997 0.662492 0.0677231
163 2 0.0625762 0.684122 0.11763
164 4 0.0966927 0.672666 0.171393
165 4 0.97608 0.724753 0.109881
166 2 0.238766 0.675309 0.075279
167 4 0.268895 0.717796 0.125117
168 4 0.302336 0.645307 0.0360142
169 1 0.843944 0.620978 0.264308
170 2 0.737907 0.627714 0.258688
171 3 0.717157 0.654364 0.213839
172 3 0.694088 0.593305 0.293721
173 2 0.910842 0.648371 0.217556
174 3 0.99076 0.644321 0.230054
175 3 0.872695 0.674521 0.177477
176 1 0.881997 0.587508 0.317723
177 2 0.812576 0.565878 0.36763
178 4 0.846693 0.577334 0.421393
179 4 0.72608 0.525247 0.359881
180 2 0.988766 0.574691 0.325279
181 4 0.0188951 0.532204 0.375117
182 4 0.0523365 0.604693 0.286014
183 1 0.906056 0.870978 0.485692
184 2 0.0120937 0.877714 0.491312
185 3 0.0328434 0.904364 0.536161
186 3 0.0559117 0.843305 0.456279
187 2 0.839158 0.898371 0.532444
188 3 0.75924 0.894321 0.519946
189 3 0.877305 0.92452 0.572523
190 1 0.868003 0.837508 0.432277
191 2 0.937424 0.815878 0.38237
192 4 0.903307 0.827334 0.328607
193 4 0.0239203 0.775247 0.390119
194 2 0.761234 0.824691 0.424721
195 4 0.731105 0.782204 0.374883
196 4 0.697664 0.854693 0.463986
197 1 0.656056 0.879022 0.235692
198 2 0.762093 0.872286 0.241312
199 3 0.782843 0.845636 0.286161
200 3 0.805912 0.906695 0.206279
201 2 0.589158 0.851629 0.282444
202 3 0.50924 0.855679 0.269946
203 3 0.627305 0.82548 0.322523
204 1 0.618003 0.912492 0.182277
205 2 0.687424 0.934122 0.13237
206 4 0.653307 0.922666 0.0786071
207 4 0.77392 0.974753 0.140119
208 2 0.511234 0.925309 0.174721
209 4 0.481105 0.967796 0.124883
210 4 0.447664 0.895307 0.213986
211 1 0.593944 0.629022 0.0143079
212 2 0.487906 0.622286 0.00868762
213 3 0.467157 0.595636 0.963839
214 3 0.444088 0.656695 0.0437212
215 2 0.660842 0.601629 0.967556
216 3 0.74076 0.605679 0.980054
217 3 0.622695 0.57548 0.927477
218 1 0.631997 0.662493 0.0677234
219 2 0.562576 0.684122 0.11763
220 4 0.596693 0.672666 0.171393
221 4 0.47608 0.724753 0.109881
222 2 0.738766 0.675309 0.075279
223 4 0.768895 0.717796 0.125117
224 4 0.802336 0.645307 0.0360142
225 1 0.343944 0.120978 0.764308
226 2 0.237906 0.127714 0.758688
227 3 0.217157 0.154364 0.713839
228 3 0.194088 0.0933052 0.793721
229 2 0.410842 0.148371 0.717556
230 3 0.49076 0.144321 0.730054
231 3 0.372695 0.17452 0.677477
232 1 0.381997 0.0875075 0.817723
233 2 0.312576 0.0658777 0.86763
234 4 0.346693 0.0773341 0.921393
235 4 0.22608 0.0252472 0.859881
236 2 0.488766 0.0746912 0.825279
237 4 0.518895 0.0322035 0.875117
238 4 0.552336 0.104693 0.786014
239 1 0.406046 0.37097 0.98568
240 2 0.512039 0.377709 0.99131
241 3 0.53284 0.404363 0.0361593
242 3 0.555909 0.343306 0.95628
243 2 0.339192 0.398355 0.03242
244 3 0.259244 0.394321 0.0199459
245 3 0.377305 0.424519 0.0725209
246 1 0.36803 0.337532 0.932316
247 2 0.437424 0.315881 0.882377
248 4 0.403306 0.327335 0.828606
249 4 0.523924 0.275246 0.890119
250 2 0.26124 0.324694 0.924725
251 4 0.231104 0.282203 0.874882
252 4 0.19766 0.354694 0.963987
253 1 0.156056 0.379022 0.735692
254 2 0.262093 0.372286 0.741312
255 3 0.282843 0.345636 0.786161
256 3 0.305912 0.406695 0.706279
257 2 0.089158 0.351629 0.782444
258 3 0.0092406 0.355679 0.769946
259 3 0.127306 0.32548 0.822523
260 1 0.118003 0.412492 0.682277
261 2 0.187424 0.434122 0.63237
262 4 0.153307 0.422666 0.578607
263 4 0.27392 0.474753 0.640119
264 2 0.0112336 0.425309 0.674721
265 4 0.981105 0.467796 0.624883
266 4 0.947664 0.395307 0.713986
267 1 0.0939444 0.129022 0.514308
268 2 0.987907 0.122286 0.508688
269 3 0.967157 0.0956358 0.463839
270 3 0.944088 0.156695 0.543721
271 2 0.160842 0.101629 0.467556
272 3 0.24076 0.105679 0.480054
273 3 0.122694 0.0754796 0.427477
274 1 0.131997 0.162492 0.567723
275 2 0.0625762 0.184122 0.61763
276 4 0.0966927 0.172666 0.671393
277 4 0.97608 0.224753 0.609881
278 2 0.238766 0.175309 0.575279
279 4 0.268895 0.217796 0.625117
280 4 0.302336 0.145307 0.536014
281 1 0.843944 0.120978 0.764308
282 2 0.737906 0.127714 0.758688
283 3 0.717157 0.154364 0.713839
284 3 0.694088 0.0933052 0.793721
285 2 0.910842 0.148371 0.717556
286 3 0.99076 0.144321 0.730054
287 3 0.872695 0.17452 0.677477
288 1 0.881997 0.0875076 0.817723
289 2 0.812576 0.0658777 0.86763
290 4 0.846693 0.0773342 0.921393
291 4 0.72608 0.0252472 0.859881
292 2 0.988766 0.0746912 0.825279
293 4 0.0188951 0.0322035 0.875117
294 4 0.0523365 0.104693 0.786014
295 1 0.906056 0.370978 0.985692
296 2 0.0120937 0.377714 0.991312
297 3 0.0328434 0.404364 0.0361605
298 3 0.0559118 0.343305 0.956279
299 2 0.839158 0.398371 0.0324442
300 3 0.75924 0.394321 0.0199458
301 3 0.877305 0.42452 0.0725229
302 1 0.868003 0.337508 0.932277
303 2 0.937424 0.315878 0.88237
304 4 0.903307 0.327334 0.828607
305 4 0.0239204 0.275247 0.890119
306 2 0.761234 0.324691 0.924721
307 4 0.731105 0.282204 0.874883
308 4 0.697664 0.354693 0.963986
309 1 0.656056 0.379022 0.735692
310 2 0.762094 0.372286 0.741312
311 3 0.782843 0.345636 0.786161
312 3 0.805912 0.406695 0.706279
313 2 0.589157 0.351629 0.782445
314 3 0.50924 0.355679 0.769946
315 3 0.627305 0.325479 0.822523
316 1 0.618003 0.412493 0.682276
317 2 0.687424 0.434122 0.63237
318 4 0.653307 0.422666 0.578607
319 4 0.77392 0.474753 0.640119
320 2 0.511234 0.425309 0.674721
321 4 0.481105 0.467796 0.624884
322 4 0.447664 0.395307 0.713986
323 1 0.593944 0.129022 0.514308
324 2 0.487906 0.122286 0.508688
325 3 0.467157 0.0956358 0.463839
326 3 0.444088 0.156695 0.543721
327 2 0.660842 0.101629 0.467556
328 3 0.74076 0.105679 0.480054
329 3 0.622695 0.0754795 0.427477
330 1 0.631997 0.162492 0.567723
331 2 0.562576 0.184122 0.61763
332 4 0.596693 0.172666 0.671393
333 4 0.47608 0.224753 0.609881
334 2 0.738766 0.175309 0.575279
335 4 0.768895 0.217796 0.625117
336 4 0.802336 0.145307 0.536014
337 1 0.343944 0.620978 0.764308
338 2 0.237906 0.627714 0.758688
339 3 0.217157 0.654364 0.713839
340 3 0.194088 0.593305 0.793721
341 2 0.410842 0.648371 0.717556
342 3 0.49076 0.644321 0.730054
343 3 0.372695 0.67452 0.677477
344 1 0.381997 0.587508 0.817723
345 2 0.312576 0.565878 0.86763
346 4 0.346693 0.577334 0.921393
347 4 0.22608 0.525247 0.859881
348 2 0.488766 0.574691 0.825279
349 4 0.518895 0.532204 0.875117
350 4 0.552336 0.604693 0.786014
351 1 0.406046 0.87097 0.98568
352 2 0.512039 0.877709 0.99131
353 3 0.53284 0.904363 0.0361593
354 3 0.555909 0.843306 0.95628
355 2 0.339192 0.898355 0.0324201
356 3 0.259244 0.894321 0.0199459
357 3 0.377305 0.924519 0.072521
358 1 0.36803 0.837532 0.932316
359 2 0.437424 0.815881 0.882377
360 4 0.403306 0.827335 0.828606
361 4 0.523924 0.775246 0.890119
362 2 0.26124 0.824694 0.924725
363 4 0.231104 0.782203 0.874882
364 4 0.19766 0.854694 0.963987
365 1 0.156056 0.879022 0.735692
366 2 0.262094 0.872286 0.741312
367 3 0.282843 0.845636 0.786161
368 3 0.305912 0.906695 0.706279
369 2 0.0891579 0.851629 0.782444
370 3 0.00924062 0.855679 0.769946
371 3 0.127306 0.82548 0.822523
372 1 0.118003 0.912492 0.682277
373 2 0.187424 0.934122 0.63237
374 4 0.153307 0.922666 0.578607
375 4 0.27392 0.974753 0.640119
376 2 0.0112336 0.925309 0.674721
377 4 0.981105 0.967796 0.624883
378 4 0.947664 0.895307 0.713986
379 1 0.0939443 0.629022 0.514308
380 2 0.987906 0.622286 0.508688
381 3 0.967157 0.595636 0.463839
382 3 0.944088 0.656695 0.543721
383 2 0.160842 0.601629 0.467556
384 3 0.24076 0.605679 0.480054
385 3 0.122694 0.57548 0.427477
386 1 0.131997 0.662492 0.567723
387 2 0.0625762 0.684122 0.61763
388 4 0.0966927 0.672666 0.671393
389 4 0.97608 0.724753 0.609881
390 2 0.238766 0.675309 0.575279
391 4 0.268895 0.717796 0.625117
392 4 0.302336 0.645307 0.536014
393 1 0.843944 0.620978 0.764308
394 2 0.737907 0.627714 0.758688
395 3 0.717157 0.654364 0.713839
396 3 0.694088 0.593305 0.793721
397 2 0.910842 0.648371 0.717556
398 3 0.99076 0.644321 0.730054
399 3 0.872695 0.67452 0.677477
400 1 0.881997 0.587508 0.817723
401 2 0.812576 0.565878 0.86763
402 4 0.846693 0.577334 0.921393
403 4 0.72608 0.525247 0.859881
404 2 0.988766 0.574691 0.825279
405 4 0.0188951 0.532204 0.875117
406 4 0.0523365 0.604693 0.786014
407 1 0.906056 0.870978 0.985692
408 2 0.0120935 0.877714 0.991312
409 3 0.0328433 0.904364 0.0361606
410 3 0.0559118 0.843305 0.956279
411 2 0.839158 0.898371 0.0324442
412 3 0.75924 0.894321 0.0199458
413 3 0.877306 0.92452 0.072523
414 1 0.868003 0.837508 0.932277
415 2 0.937424 0.815878 0.88237
416 4 0.903307 0.827334 0.828607
417 4 0.0239204 0.775247 0.890119
418 2 0.761234 0.824691 0.924721
419 4 0.731105 0.782204 0.874883
420 4 0.697664 0.854693 0.963986
421 1 0.656056 0.879022 0.735692
422 2 0.762094 0.872286 0.741312
423 3 0.782843 0.845636 0.786161
424 3 0.805912 0.906695 0.706279
425 2 0.589157 0.851629 0.782445
426 3 0.50924 0.855679 0.769946
427 3 0.627305 0.82548 0.822523
428 1 0.618003 0.912493 0.682276
429 2 0.687424 0.934122 0.63237
430 4 0.653307 0.922666 0.578607
431 4 0.77392 0.974753 0.640119
432 2 0.511234 0.925309 0.674721
433 4 0.481105 0.967796 0.624884
434 4 0.447664 0.895307 0.713986
435 1 0.593944 0.629022 0.514308
436 2 0.487907 0.622286 0.508688
437 3 0.467157 0.595636 0.463839
438 3 0.444088 0.656695 0.543721
439 2 0.660842 0.601629 0.467556
440 3 0.74076 0.605679 0.480054
441 3 0.622695 0.57548 0.427477
442 1 0.631997 0.662492 0.567723
443 2 0.562576 0.684122 0.61763
444 4 0.596693 0.672666 0.671393
445 4 0.47608 0.724753 0.609881
446 2 0.738766 0.675309 0.575279
447 4 0.768895 0.717796 0.625117
448 4 0.802336 0.645307 0.536014
ITEM: TIMESTEP
1000
ITEM: NUMBER OF ATOMS
448
ITEM: BOX BOUNDS xy xz yz pp pp pp
-2.5836954075616090e+00 1.4563907560918672e+01 -1.1999088241012097e-01
-1.0790673690019590e+00 1.4434890070784325e+01 -1.7789969642327736e+00
-5.0474796544199485e-01 2.3184658323741985e+01 8.1022701782386297e-02
ITEM: ATOMS id type xs ys zs
1 1 0.346658 0.0844037 0.262
2 2 0.250133 0.0926039 0.258358
3 3 0.21766 0.07983 0.216609
4 3 0.225446 0.112678 0.30123
5 2 0.398133 0.0926485 0.210388
6 3 0.457873 0.0613279 0.210025
7 3 0.367806 0.13153 0.176917
8 1 0.389711 0.0731845 0.31395
9 2 0.334863 0.0567224 0.362985
10 4 0.37182 0.0207209 0.409484
11 4 0.248341 0.0688815 0.363339
12 2 0.490505 0.0809407 0.319453
13 4 0.528659 0.0964401 0.369435
14 4 0.539812 0.0617428 0.278463
15 1 0.38002 0.362516 0.475289
16 2 0.476932 0.367144 0.476556
17 3 0.502238 0.394326 0.518758
18 3 0.511015 0.34482 0.43769
19 2 0.328995 0.381356 0.523707
20 3 0.253274 0.37337 0.521876
21 3 0.365968 0.415121 0.558681
22 1 0.333179 0.336426 0.424638
23 2 0.388098 0.318876 0.377298
24 4 0.350044 0.273334 0.335351
25 4 0.473368 0.340137 0.371983
26 2 0.23475 0.323585 0.425017
27 4 0.19281 0.304109 0.37573
28 4 0.185961 0.338965 0.467761
29 1 0.14302 0.373032 0.235768
30 2 0.237268 0.366824 0.255051
31 3 0.245991 0.356922 0.299543
32 3 0.278189 0.395411 0.219231
33 2 0.0741303 0.362892 0.274653
34 3 0.00123515 0.362639 0.251815
35 3 0.0907932 0.347501 0.317781
36 1 0.120843 0.393142 0.179643
37 2 0.191876 0.413547 0.138728
38 4 0.167678 0.416768 0.0843215
39 4 0.274564 0.430255 0.153798
40 2 0.0257392 0.408953 0.161488
41 4 0.00410873 0.442271 0.110951
42 4 0.95983 0.397461 0.192887
43 1 0.126874 0.121021 0.0309155
44 2 0.0408548 0.0757485 0.0261634
45 3 0.0224323 0.0507253 0.986008
46 3 0.0216236 0.0386345 0.0677378
47 2 0.185831 0.137084 0.985903
48 3 0.248348 0.178619 0.99861
49 3 0.155898 0.117597 0.944278
50 1 0.150519 0.156562 0.0834316
51 2 0.0879163 0.145123 0.132166
52 4 0.10689 0.187054 0.178763
53 4 0.0269296 0.0841175 0.130012
54 2 0.235192 0.201075 0.0947411
55 4 0.257973 0.226367 0.147203
56 4 0.298211 0.210577 0.0578639
57 1 0.826433 0.113013 0.259114
58 2 0.731308 0.128007 0.248682
59 3 0.700789 0.142393 0.206657
60 3 0.688199 0.125345 0.288847
61 2 0.887071 0.105911 0.213957
62 3 0.958814 0.0884124 0.225959
63 3 0.854816 0.127274 0.174279
64 1 0.864528 0.0971298 0.313074
65 2 0.80242 0.107952 0.362748
66 4 0.831925 0.0814725 0.41179
67 4 0.718547 0.131713 0.355792
68 2 0.959007 0.0791999 0.32375
69 4 0.988452 0.0823951 0.378385
70 4 0.018693 0.0855101 0.286005
71 1 0.895026 0.357123 0.490448
72 2 0.991658 0.34936 0.496984
73 3 0.0171448 0.351603 0.543443
74 3 0.0275013 0.340301 0.456691
75 2 0.841022 0.373687 0.538087
76 3 0.76602 0.365887 0.531551
77 3 0.87515 0.373874 0.579243
78 1 0.853879 0.350709 0.436504
79 2 0.907921 0.344023 0.386276
80 4 0.865284 0.339105 0.335669
81 4 0.996141 0.341079 0.387942
82 2 0.756149 0.35434 0.430328
83 4 0.714398 0.354272 0.380263
84 4 0.705066 0.361607 0.473086
85 1 0.647169 0.379673 0.235794
86 2 0.74356 0.377875 0.252761
87 3 0.750746 0.363489 0.296569
88 3 0.792905 0.380299 0.217192
89 2 0.581281 0.345258 0.271427
90 3 0.508925 0.373418 0.260222
91 3 0.61445 0.320935 0.311529
92 1 0.623654 0.415763 0.182895
93 2 0.694425 0.447835 0.146927
94 4 0.668937 0.485572 0.0981758
95 4 0.780161 0.438239 0.159573
96 2 0.525682 0.418056 0.165687
97 4 0.498313 0.413948 0.11173
98 4 0.464609 0.408735 0.202326
99 1 0.591273 0.15888 0.999655
100 2 0.494443 0.172455 0.992046
101 3 0.468102 0.141065 0.952274
102 3 0.458673 0.206058 0.0236553
103 2 0.649575 0.14557 0.954751
104 3 0.722814 0.121184 0.959847
105 3 0.631588 0.185734 0.916256
106 1 0.632947 0.166208 0.0531606
107 2 0.581758 0.189038 0.100867
108 4 0.615621 0.221527 0.148967
109 4 0.494027 0.170789 0.0982241
110 2 0.734771 0.154418 0.0624469
111 4 0.770547 0.166262 0.113664
112 4 0.781401 0.129126 0.021282
113 1 0.331293 0.578597 0.263664
114 2 0.236627 0.565896 0.254047
115 3 0.212145 0.559945 0.209442
116 3 0.19716 0.555017 0.292282
117 2 0.394162 0.604249 0.224423
118 3 0.461692 0.618677 0.250962
119 3 0.379157 0.610294 0.178701
120 1 0.367487 0.570428 0.320479
121 2 0.304691 0.548833 0.364919
122 4 0.338242 0.551143 0.417163
123 4 0.218391 0.538204 0.358388
124 2 0.460301 0.582311 0.331684
125 4 0.502596 0.567348 0.380236
126 4 0.51359 0.619579 0.29086
127 1 0.389643 0.888368 0.486987
128 2 0.487337 0.885653 0.486317
129 3 0.519475 0.91317 0.522276
130 3 0.515361 0.865159 0.445558
131 2 0.34256 0.917307 0.532912
132 3 0.265354 0.923502 0.525407
133 3 0.383485 0.932572 0.573549
134 1 0.339537 0.855379 0.439605
135 2 0.388553 0.818183 0.39142
136 4 0.344614 0.763894 0.357781
137 4 0.465222 0.851649 0.377032
138 2 0.241609 0.857843 0.439119
139 4 0.197756 0.843089 0.390376
140 4 0.194991 0.88169 0.482196
141 1 0.139892 0.864236 0.236308
142 2 0.2365 0.850421 0.239258
143 3 0.27277 0.836547 0.281462
144 3 0.266191 0.843556 0.196684
145 2 0.0799011 0.852044 0.281048
146 3 0.00838602 0.823884 0.267377
147 3 0.108755 0.85283 0.326472
148 1 0.0966945 0.888747 0.184835
149 2 0.15844 0.916879 0.141705
150 4 0.139184 0.886665 0.0901428
151 4 0.225102 0.970507 0.1526
152 2 0.99936 0.890688 0.177168
153 4 0.965324 0.915068 0.127518
154 4 0.944649 0.878992 0.218937
155 1 0.0894101 0.619563 0.0204719
156 2 0.997257 0.598639 0.00891606
157 3 0.973465 0.568281 0.966179
158 3 0.950149 0.619039 0.0438474
159 2 0.15853 0.604358 0.980508
160 3 0.230786 0.606729 0.997634
161 3 0.1238 0.579409 0.941668
162 1 0.115186 0.648062 0.0751132
163 2 0.0521537 0.646239 0.122806
164 4 0.089781 0.656586 0.173317
165 4 0.966112 0.637827 0.113477
166 2 0.209361 0.677596 0.0847614
167 4 0.231745 0.714709 0.133085
168 4 0.271485 0.657338 0.0514341
169 1 0.844922 0.631465 0.263308
170 2 0.747866 0.639858 0.254841
171 3 0.720362 0.652678 0.209917
172 3 0.712512 0.653667 0.294561
173 2 0.904523 0.636176 0.217301
174 3 0.975328 0.623322 0.220726
175 3 0.868178 0.657703 0.176335
176 1 0.883007 0.611754 0.317077
177 2 0.821874 0.591382 0.361448
178 4 0.850679 0.563343 0.410954
179 4 0.73589 0.613172 0.356363
180 2 0.981784 0.603988 0.324845
181 4 0.0159923 0.603743 0.376726
182 4 0.0326995 0.609041 0.282172
183 1 0.899663 0.899528 0.491881
184 2 0.995485 0.901049 0.503275
185 3 0.0169876 0.902929 0.546563
186 3 0.0364897 0.903889 0.463232
187 2 0.835794 0.91836 0.533685
188 3 0.766412 0.887166 0.52113
189 3 0.863164 0.953595 0.569318
190 1 0.861826 0.878738 0.437842
191 2 0.927127 0.86765 0.393306
192 4 0.893767 0.842652 0.342609
193 4 0.0133725 0.883394 0.398832
194 2 0.765897 0.866661 0.427777
195 4 0.728319 0.874941 0.375906
196 4 0.710702 0.844772 0.467026
197 1 0.669413 0.898284 0.234807
198 2 0.765587 0.891816 0.246623
199 3 0.789606 0.877243 0.290915
200 3 0.804134 0.906364 0.210064
201 2 0.606985 0.887773 0.278357
202 3 0.536678 0.871297 0.260242
203 3 0.630421 0.895537 0.322424
204 1 0.636092 0.920479 0.181386
205 2 0.700391 0.936347 0.135432
206 4 0.671359 0.972383 0.0873568
207 4 0.786226 0.928326 0.141567
208 2 0.537283 0.924347 0.168428
209 4 0.508528 0.945489 0.11578
210 4 0.481716 0.888952 0.20187
211 1 0.574701 0.64753 0.0110637
212 2 0.47904 0.643523 0.00498652
213 3 0.452144 0.628232 0.95972
214 3 0.446027 0.655219 0.0471198
215 2 0.631146 0.63747 0.963639
216 3 0.700498 0.661874 0.965457
217 3 0.589689 0.621832 0.92592
218 1 0.619696 0.661516 0.063624
219 2 0.568391 0.673164 0.114712
220 4 0.613698 0.692321 0.163728
221 4 0.482274 0.669375 0.114036
222 2 0.7163 0.667869 0.0693364
223 4 0.758822 0.66595 0.121248
224 4 0.769581 0.679461 0.027447
225 1 0.351896 0.132325 0.756743
226 2 0.257387 0.145685 0.749011
227 3 0.237752 0.173144 0.709237
228 3 0.214378 0.129811 0.785711
229 2 0.419217 0.156618 0.718869
230 3 0.488583 0.133176 0.72947
231 3 0.395397 0.195386 0.68019
232 1 0.387228 0.0967481 0.807834
233 2 0.327072 0.0671959 0.848807
234 4 0.358695 0.0151622 0.888225
235 4 0.237948 0.0806575 0.848655
236 2 0.486889 0.0901482 0.822174
237 4 0.512457 0.0759561 0.874452
238 4 0.546266 0.100825 0.784885
239 1 0.402645 0.400535 0.984781
240 2 0.499739 0.418664 0.989195
241 3 0.519186 0.424985 0.0362952
242 3 0.537873 0.428366 0.951565
243 2 0.346956 0.416173 0.0298352
244 3 0.273356 0.386421 0.0233534
245 3 0.385398 0.450512 0.0672936
246 1 0.371915 0.358101 0.936009
247 2 0.432348 0.344405 0.885959
248 4 0.408329 0.288116 0.847881
249 4 0.508993 0.38081 0.887418
250 2 0.275656 0.328794 0.933405
251 4 0.245395 0.28936 0.888008
252 4 0.218684 0.359757 0.96904
253 1 0.158122 0.382133 0.742566
254 2 0.255514 0.385783 0.744675
255 3 0.298749 0.404129 0.781802
256 3 0.278638 0.359085 0.704155
257 2 0.107198 0.362558 0.790332
258 3 0.0314838 0.376893 0.77794
259 3 0.147046 0.349628 0.828824
260 1 0.111051 0.397742 0.690754
261 2 0.164272 0.42383 0.641907
262 4 0.133386 0.482209 0.604674
263 4 0.24425 0.396366 0.633829
264 2 0.0102568 0.392305 0.686697
265 4 0.977965 0.371491 0.635568
266 4 0.957198 0.398394 0.727499
267 1 0.0984278 0.143665 0.50378
268 2 0.00229284 0.145725 0.504646
269 3 0.961479 0.135518 0.465831
270 3 0.974967 0.153906 0.547151
271 2 0.147574 0.119375 0.454543
272 3 0.213095 0.159544 0.453578
273 3 0.107531 0.0855972 0.423156
274 1 0.143304 0.161354 0.556061
275 2 0.0969549 0.175696 0.608718
276 4 0.141225 0.206304 0.655285
277 4 0.0148464 0.151659 0.613637
278 2 0.241471 0.162455 0.55527
279 4 0.284488 0.16358 0.606414
280 4 0.28506 0.153136 0.510223
281 1 0.885889 0.118848 0.770953
282 2 0.786039 0.114207 0.771041
283 3 0.751097 0.134117 0.731704
284 3 0.759692 0.12202 0.815331
285 2 0.931877 0.142271 0.720347
286 3 0.00424532 0.131484 0.728867
287 3 0.888168 0.156124 0.684613
288 1 0.928401 0.0952844 0.820866
289 2 0.881392 0.0581129 0.868378
290 4 0.924395 0.0131219 0.906729
291 4 0.79442 0.0745387 0.873887
292 2 0.030397 0.102157 0.825667
293 4 0.0675426 0.0837542 0.874252
294 4 0.0786269 0.129461 0.784587
295 1 0.902033 0.34873 0.994706
296 2 0.997468 0.356618 0.996967
297 3 0.0365788 0.339943 0.0391329
298 3 0.0290867 0.378415 0.953397
299 2 0.849694 0.351593 0.041875
300 3 0.770903 0.36083 0.0356036
301 3 0.880367 0.372402 0.0843967
302 1 0.861668 0.342714 0.938515
303 2 0.916454 0.334021 0.890998
304 4 0.871721 0.320661 0.840424
305 4 0.00318235 0.342346 0.892578
306 2 0.762359 0.339396 0.93448
307 4 0.722055 0.339623 0.883126
308 4 0.711714 0.344708 0.977409
309 1 0.638091 0.384889 0.729379
310 2 0.732832 0.359579 0.735893
311 3 0.762203 0.359638 0.781292
312 3 0.769988 0.348706 0.69615
313 2 0.579649 0.381734 0.774471
314 3 0.516794 0.421612 0.768833
315 3 0.605895 0.349389 0.816687
316 1 0.603031 0.404112 0.675376
317 2 0.662781 0.410644 0.627651
318 4 0.631856 0.447455 0.579631
319 4 0.748413 0.392887 0.632473
320 2 0.504693 0.408358 0.66718
321 4 0.467651 0.401789 0.616271
322 4 0.455531 0.394777 0.711631
323 1 0.600928 0.120723 0.512285
324 2 0.506685 0.128706 0.500236
325 3 0.484408 0.11357 0.456178
326 3 0.468157 0.146884 0.538961
327 2 0.66371 0.0998368 0.471282
328 3 0.735781 0.119459 0.488747
329 3 0.641428 0.0833604 0.428226
330 1 0.637344 0.136327 0.568008
331 2 0.576831 0.161229 0.612868
332 4 0.615204 0.187093 0.66111
333 4 0.489034 0.172541 0.60593
334 2 0.733539 0.126837 0.582022
335 4 0.759682 0.102691 0.634807
336 4 0.795658 0.14271 0.547231
337 1 0.340984 0.600469 0.749939
338 2 0.245412 0.607998 0.734376
339 3 0.232687 0.625794 0.687297
340 3 0.212291 0.621024 0.772951
341 2 0.408896 0.602829 0.708022
342 3 0.473008 0.626246 0.73042
343 3 0.389674 0.62128 0.665474
344 1 0.371073 0.583157 0.804993
345 2 0.306231 0.573489 0.848277
346 4 0.331122 0.532305 0.894697
347 4 0.227616 0.610297 0.843646
348 2 0.46852 0.577001 0.819907
349 4 0.491811 0.56313 0.874631
350 4 0.531293 0.593773 0.787409
351 1 0.417884 0.881286 0.990237
352 2 0.511096 0.896303 0.99787
353 3 0.537898 0.927809 0.0370094
354 3 0.551162 0.909907 0.958327
355 2 0.353968 0.893793 0.0349609
356 3 0.296824 0.845557 0.0297252
357 3 0.382348 0.936669 0.0663723
358 1 0.386306 0.844153 0.938691
359 2 0.450659 0.834077 0.89482
360 4 0.429594 0.775919 0.856887
361 4 0.531368 0.871592 0.897033
362 2 0.289303 0.82875 0.930964
363 4 0.25439 0.800191 0.882352
364 4 0.232909 0.826395 0.97195
365 1 0.160838 0.8992 0.743104
366 2 0.256065 0.887195 0.741403
367 3 0.302084 0.904181 0.778272
368 3 0.28182 0.882033 0.696654
369 2 0.115088 0.894032 0.794554
370 3 0.0419806 0.916756 0.785723
371 3 0.142971 0.852606 0.82794
372 1 0.115444 0.920027 0.691722
373 2 0.163772 0.944204 0.639932
374 4 0.119679 0.980777 0.597553
375 4 0.243659 0.914867 0.632626
376 2 0.0187796 0.922139 0.687811
377 4 0.977214 0.934107 0.635654
378 4 0.972671 0.909698 0.732397
379 1 0.110709 0.645875 0.504834
380 2 0.0153712 0.636362 0.498494
381 3 0.99222 0.614932 0.456861
382 3 0.968748 0.646802 0.535346
383 2 0.167284 0.63423 0.459621
384 3 0.238801 0.617124 0.476588
385 3 0.137283 0.604724 0.418742
386 1 0.147597 0.67452 0.558098
387 2 0.0865644 0.695371 0.602977
388 4 0.12189 0.720643 0.652121
389 4 0.00216358 0.667234 0.600681
390 2 0.248199 0.684437 0.567152
391 4 0.281111 0.700801 0.619031
392 4 0.303483 0.67045 0.528536
393 1 0.857461 0.583985 0.759943
394 2 0.761193 0.596192 0.748315
395 3 0.730546 0.607846 0.703735
396 3 0.725701 0.621866 0.778954
397 2 0.926215 0.590788 0.722344
398 3 0.00112154 0.605027 0.740339
399 3 0.895975 0.605514 0.680213
400 1 0.880968 0.564153 0.817409
401 2 0.813505 0.549259 0.859359
402 4 0.840263 0.521184 0.909611
403 4 0.737768 0.592564 0.854806
404 2 0.980325 0.562301 0.835885
405 4 0.00457516 0.538877 0.887118
406 4 0.0426255 0.576205 0.801141
407 1 0.914434 0.833396 0.984299
408 2 0.00520584 0.825277 0.00390596
409 3 0.0199941 0.840577 0.0510835
410 3 0.0593704 0.807864 0.973647
411 2 0.84448 0.854885 0.0211008
412 3 0.785783 0.887833 0.0027904
413 3 0.874399 0.858314 0.0672773
414 1 0.889922 0.816524 0.926615
415 2 0.960773 0.788108 0.889359
416 4 0.937798 0.760664 0.83862
417 4 0.0461565 0.798043 0.905262
418 2 0.796738 0.831306 0.906196
419 4 0.768268 0.802578 0.854482
420 4 0.743644 0.880894 0.93174
421 1 0.653722 0.897817 0.73892
422 2 0.747654 0.881034 0.738745
423 3 0.785532 0.89318 0.781422
424 3 0.781742 0.880863 0.69683
425 2 0.609974 0.90928 0.792971
426 3 0.547054 0.937452 0.788367
427 3 0.64936 0.884406 0.828374
428 1 0.602014 0.91532 0.689758
429 2 0.653192 0.918913 0.635832
430 4 0.612815 0.94854 0.590378
431 4 0.73537 0.888941 0.632909
432 2 0.504624 0.926225 0.687306
433 4 0.462341 0.931232 0.638485
434 4 0.464536 0.916665 0.735065
435 1 0.610446 0.651889 0.505391
436 2 0.515666 0.666329 0.503416
437 3 0.479718 0.651425 0.461832
438 3 0.477634 0.675016 0.541555
439 2 0.663842 0.632909 0.457766
440 3 0.739627 0.621706 0.465386
441 3 0.620024 0.605676 0.420821
442 1 0.655699 0.657145 0.55866
443 2 0.604562 0.680726 0.607679
444 4 0.647768 0.706299 0.655621
445 4 0.519317 0.660579 0.612541
446 2 0.751915 0.642227 0.565378
447 4 0.791368 0.634254 0.617486