LAMMPS data file via write_data, version 15 Apr 2020, timestep = 80000

448 atoms
4 atom types

-4.6535148558935102e-01 1.4344551485588863e+01 xlo xhi
-4.5732928480200030e-01 1.3732129284802170e+01 ylo yhi
-8.2108424614387765e-01 2.3500994604445239e+01 zlo zhi
2.3286769371766067e+00 -8.4719511457030705e-01 3.8568238033905042e+00 xy xz yz

Masses

1 12.0107
2 14.0067
3 1.00794
4 15.9994

Atoms # full

6 1 3 4.8815907389305413e-01 2.9836879878153755e-01 1.8001784680808934e+00 4.1917762691126601e+00 1 0 0
12 1 2 5.2154123034758859e-04 3.5812464420218459e-01 2.6903486673716754e+00 6.4681954336421024e+00 1 0 0
13 1 4 -2.3268215498419548e-01 7.6353875639465363e-01 2.9400944133473201e+00 7.6802261037636494e+00 1 0 0
14 1 4 -2.3746047223465372e-01 1.2263439760653512e+00 2.1607166800979227e+00 5.6502351322020354e+00 1 0 0
27 1 4 -1.8035371289233637e-01 9.9503443797786097e+00 6.4055263178349682e+00 9.2788258252625333e+00 -1 0 0
28 1 4 -3.8545352577420094e-01 9.5233557012320222e+00 6.4196409090937623e+00 1.1547769338593698e+01 -1 0 0
29 1 1 3.4461828551332785e-01 8.6800464134569282e+00 6.2094940154221785e+00 5.6512309068033337e+00 -1 0 0
30 1 2 -7.3551521847366552e-01 1.0105023277697525e+01 6.4381568504853233e+00 5.7512650335508377e+00 -1 0 0
33 1 2 -6.2763644517639861e-01 7.7220240315758186e+00 6.2058665203668655e+00 6.7837370645539767e+00 -1 0 0
34 1 3 4.7322183858328953e-01 6.5403717696094290e+00 6.3477444206622904e+00 6.5621889724458278e+00 -1 0 0
35 1 3 4.4957344290476320e-01 8.0296101894548517e+00 6.0568452018149106e+00 7.8335380561671766e+00 -1 0 0
36 1 1 9.1785804475278870e-02 8.1726849901239369e+00 5.9813972637856194e+00 4.3479623549477031e+00 -1 0 0
37 1 2 -2.8065906363667546e-02 9.1535526605912683e+00 5.7843378721204433e+00 3.2765348567234973e+00 -1 0 0
38 1 4 -2.0603588914391757e-01 8.7166896646955188e+00 5.7664285169620015e+00 2.0499838523100631e+00 -1 0 0
40 1 2 8.5468632610473626e-03 6.6650217241312166e+00 5.8762780459448400e+00 4.1787636080839805e+00 -1 0 0
41 1 4 -2.5004468435931487e-01 6.2366857057895242e+00 5.6166284883874766e+00 2.9708144272018595e+00 0 0 0
42 1 4 -2.5541621104499124e-01 5.8355592742489577e+00 5.9243653693689176e+00 5.2146755575061725e+00 0 0 0
44 1 2 -6.8660559925584430e-01 7.2219867430197588e+00 5.3085561124498462e+00 2.2826752543873113e+01 1 0 -1
45 1 3 4.6924328106611179e-01 6.8182214809987034e+00 5.0161997604560842e+00 2.1868722179127467e+01 1 0 0
46 1 3 5.6516444169736446e-01 7.5306784002601459e+00 1.7385897096817002e+00 -3.7960073033513481e-01 1 0 0
51 1 2 -4.2120745930534872e-02 8.9801994027995082e+00 1.8436733917011643e+00 1.0148602980182884e+00 0 0 0
53 1 4 -3.4579395919633998e-01 7.6098006900107107e+00 2.1703648166572069e+00 6.9761161942695948e-01 1 0 0
57 1 1 3.4234465955451343e-01 5.9249413370758388e+00 2.3497334017158482e+00 4.7265056618150316e+00 1 0 0
58 1 2 -6.3942248320926176e-01 4.5684430457966574e+00 2.3655444272203017e+00 4.6458843549209812e+00 1 0 0
59 1 3 4.4093813975668522e-01 4.0188699309438789e+00 2.0969665222729779e+00 3.7159395082315019e+00 1 0 0
60 1 3 4.8794985498632409e-01 4.0023967575501800e+00 2.6897062828013363e+00 5.7757316191486847e+00 1 0 0
61 1 2 -6.5961263099507916e-01 6.8401639110907189e+00 1.9662722644869222e+00 3.6072203229296020e+00 1 0 0
62 1 3 4.9155295778076291e-01 7.9748382338016723e+00 2.3377323873468239e+00 3.8249307060722213e+00 1 0 0
63 1 3 4.8792080546584482e-01 6.3146516169307629e+00 1.5880781149649699e+00 2.7561600453028823e+00 1 0 0
64 1 1 1.0363320007908335e-01 6.5270043481528859e+00 2.7142951166711162e+00 5.9958583114571109e+00 1 0 0
65 1 2 -2.1263750066872918e-02 5.6182894338375569e+00 3.1159543496795310e+00 7.0510197684969107e+00 1 0 0
66 1 4 -1.8908788186347392e-01 6.1766546657320571e+00 3.2259775623881666e+00 8.2061449232113013e+00 1 0 0
67 1 4 -3.3408312044956290e-01 4.2248645441205781e+00 2.9027722007903263e+00 7.0009383763440418e+00 1 0 0
68 1 2 1.7633582630606527e-03 8.0524017660062501e+00 2.8114153751033744e+00 6.1502365774594834e+00 1 0 0
69 1 4 -2.1778947807918614e-01 8.5762732276777420e+00 3.0007340430597083e+00 7.3249512115535360e+00 0 0 0
70 1 4 -2.6353577727368871e-01 8.8312131183093285e+00 2.8130041944427067e+00 5.0912003744347043e+00 0 0 0
71 1 1 2.9375311084086392e-01 4.9575218835462742e+00 6.7682636072838349e+00 1.1822696490996178e+01 0 0 0
72 1 2 -6.5137528952943247e-01 6.3885715988482099e+00 6.7163089983402173e+00 1.2094091174715377e+01 -1 0 0
73 1 3 4.4241639853655079e-01 6.5673018556584379e+00 7.0197618438689755e+00 1.3141295492822559e+01 -1 0 0
74 1 3 4.6769656160234430e-01 7.1159793289918056e+00 6.5803501300127891e+00 1.1156754353104464e+01 -1 0 0
75 1 2 -6.6774911758911282e-01 3.8377044124828323e+00 6.8360662710755307e+00 1.2812036444015266e+01 0 0 0
76 1 3 4.8131756567441070e-01 2.9686604702645458e+00 6.2671987199461103e+00 1.2511218712764263e+01 0 0 0
77 1 3 4.2397178864180685e-01 4.2147359909818842e+00 7.2295711476811668e+00 1.3801052186313695e+01 0 0 0
78 1 1 1.0866601862769951e-01 4.5870146173047948e+00 6.6696322935173225e+00 1.0482943983175145e+01 0 0 0
79 1 2 -1.1131920217363197e-02 5.5818430547137492e+00 6.7257417789304519e+00 9.3749249249290365e+00 0 0 0
80 1 4 -1.9660910595702596e-01 5.0980593785367407e+00 6.7190820606931654e+00 8.1218786372270078e+00 0 0 0
81 1 4 -2.6764956494129755e-01 6.8792961520115821e+00 6.5865398960891834e+00 9.5140326416453291e+00 -1 0 0
82 1 2 -2.2404449236807858e-03 3.1137239101516725e+00 6.5804973188970486e+00 1.0140365136675108e+01 0 0 0
83 1 4 -2.1859046421830489e-01 2.7581678513353332e+00 6.4133264523986071e+00 8.8696406821697131e+00 0 0 0
84 1 4 -2.2884193624682339e-01 2.1301652335878130e+00 6.5402802537121740e+00 1.1010881280509576e+01 0 0 0
85 1 1 3.3067960675393371e-01 1.1043147277037955e+00 6.2083800243140193e+00 5.8102283806151718e+00 0 0 0
86 1 2 -6.7955099476847136e-01 2.5162639166441352e+00 6.0704224699736784e+00 5.7657470432044455e+00 0 0 0
87 1 3 4.5022996946337246e-01 3.0545380340361747e+00 6.1882847667642533e+00 6.6861081033704464e+00 0 0 0
88 1 3 5.2690770961437405e-01 2.9302961006197901e+00 5.6407993848830644e+00 4.6635095293174995e+00 0 0 0
91 1 3 4.8037572419197222e-01 8.3656604685978686e-01 6.6499783385866449e+00 7.8910771767972925e+00 0 0 0
92 1 1 8.7267701289661090e-02 4.6799287677969148e-01 5.8840894798207115e+00 4.5713877889763213e+00 0 0 0
93 1 2 -1.5841385058155091e-02 1.3781526543834572e+00 5.3939498614020973e+00 3.4464241706583270e+00 0 0 0
94 1 4 -2.0814333603099475e-01 8.5573133174630167e-01 5.1678948989390010e+00 2.3196673848650287e+00 0 0 0
95 1 4 -3.4421315310558143e-01 2.7503944462360104e+00 5.1880253369545137e+00 3.5394434808299149e+00 0 0 0
99 1 1 3.5671130627391368e-01 1.2073530969330779e+00 4.9927152567589292e+00 2.3294692305182991e+01 1 0 -1
100 1 2 -6.9576082716751575e-01 -1.8731470119813576e-01 4.8227216251364737e+00 2.3204030253856594e+01 1 0 -1
101 1 3 4.8871254325973990e-01 -7.4145943961316862e-01 4.6614300465230372e+00 2.2320413490286803e+01 1 0 0
102 1 3 5.2942185153671262e-01 1.7518917980846871e-01 1.2495972062857055e+00 -6.7754466812676162e-03 1 0 0
103 1 2 -6.5890762140157821e-01 2.1297468921716716e+00 4.8021807330590924e+00 2.2178706584018805e+01 1 0 0
104 1 3 4.4558352667841394e-01 3.1694986668803606e+00 5.3299170586162905e+00 2.2329381805499210e+01 1 0 0
105 1 3 4.5553453312348524e-01 1.8157249682736738e+00 4.2904119595746373e+00 2.1265236957656640e+01 1 0 0
106 1 1 8.8438913631480320e-02 2.5811247583896915e+00 1.4948212917175887e+00 2.6683157661500001e-01 1 0 0
107 1 2 -2.9290477077254462e-02 1.6276188646765997e+00 1.6159725311988185e+00 1.3631716593264041e+00 1 0 0
108 1 4 -1.9853893762536265e-01 2.1770877793539967e+00 1.7362124631131546e+00 2.5280108575361013e+00 1 0 0
109 1 4 -3.4137972183853366e-01 2.3860393293097981e-01 1.5376620763921851e+00 1.2026807357525660e+00 1 0 0
110 1 2 5.8717350361961670e-03 4.0858714192248557e+00 1.7421826855617120e+00 4.1159829129836112e-01 1 0 0
111 1 4 -2.2317675290830855e-01 4.6328156826720406e+00 1.7583342361098073e+00 1.5748355366866678e+00 1 0 0
112 1 4 -2.5120230242219904e-01 4.9178219371982221e+00 1.6916736583135363e+00 -6.3040226840789482e-01 1 0 0
113 1 1 3.2103265321092561e-01 1.2164779659551748e+00 9.3655024329053145e+00 3.7070400607326128e+00 0 0 0
117 1 2 -6.4870526015192431e-01 1.9653399601176513e+00 9.2903122295369958e+00 2.4277755499573450e+00 0 0 0
118 1 3 4.5448963570222267e-01 3.0980874751502836e+00 9.4864827404005254e+00 2.4234666082721477e+00 0 0 0
119 1 3 4.2870053360006610e-01 1.3076682600512655e+00 8.8079206336810927e+00 1.6925036144074972e+00 0 0 0
120 1 1 9.6027897459534203e-02 1.8556189438963220e+00 9.3975930284184255e+00 4.9714137415399096e+00 0 0 0
121 1 2 -2.6278412247446887e-02 1.0144664874941345e+00 9.4867474901654880e+00 6.1847151122893536e+00 0 0 0
122 1 4 -1.6896758223144290e-01 1.4702873630187610e+00 9.7953274882988168e+00 7.3052699002473283e+00 0 0 0
124 1 2 3.2257091925219882e-03 3.4038614418249873e+00 9.3427103378588097e+00 4.9891162911953364e+00 0 0 0
125 1 4 -1.9201762541923373e-01 4.0262380289395772e+00 9.2749657949126902e+00 6.1214883352154281e+00 0 0 0
126 1 4 -2.3240573186480865e-01 4.0769536001969513e+00 9.1695138517306098e+00 3.8542461673241952e+00 0 0 0
127 1 1 3.3958034787122410e-01 1.1824950162994149e+01 1.3797285375512658e+01 1.2929803198831777e+01 0 0 0
131 1 2 -6.9855503133897923e-01 1.0775946395601595e+01 1.3705692840765010e+01 1.3860883270657085e+01 0 0 0
132 1 3 5.8594968085056509e-01 9.6355479173381298e+00 1.3481312725294792e+01 1.3347197730175427e+01 0 0 0
133 1 3 4.9266068058845947e-01 1.1014800391605290e+01 1.3755429481467011e+01 1.4896671842464837e+01 0 0 0
134 1 1 9.7908439957800006e-02 1.1332382798791127e+01 1.3787064876643987e+01 1.1589903950605338e+01 0 0 0
136 1 4 -2.1561819969195023e-01 1.1946234470570953e+01 1.3757653820430177e+01 9.2588979963682849e+00 0 0 0
138 1 2 -2.2986688853754149e-02 9.8986694126928167e+00 1.3562342474210785e+01 1.1397518568401040e+01 0 0 0
139 1 4 -2.2253395211706717e-01 9.4500246860737853e+00 1.3477007900252199e+01 1.0182543476063250e+01 0 0 0
140 1 4 -3.7241640324061454e-01 8.9510378068922822e+00 1.3338789421362289e+01 1.2438503462399952e+01 0 0 0
141 1 1 3.3522763826366053e-01 8.6353649848806828e+00 1.3187523324899736e+01 6.8151904324878618e+00 0 0 0
142 1 2 -6.3360918220779305e-01 1.0120237751844281e+01 1.3094496736399352e+01 6.9806149128610819e+00 0 0 0
143 1 3 4.0955455330415652e-01 1.0488902766901740e+01 1.2963972828529897e+01 8.0623209106364584e+00 0 0 0
144 1 3 4.6229681336530670e-01 1.0771712218254480e+01 1.3358094276891526e+01 6.0821443643622128e+00 0 0 0
145 1 2 -7.3018640491474118e-01 7.6987224265916145e+00 1.3401003552612966e+01 7.8368346298426577e+00 0 0 0
146 1 3 5.7784767857740404e-01 6.5748280542870994e+00 1.3604272501568278e+01 7.3121532480569478e+00 0 0 0
147 1 3 4.9185469782350039e-01 8.0032319543062975e+00 1.3454276454041684e+01 8.8409307148520728e+00 0 0 0
148 1 1 1.0924637888959385e-01 8.0179416745731125e+00 1.3063851977314181e+01 5.5274310086166807e+00 0 0 0
149 1 2 -3.0845033176833542e-03 8.9220677785699642e+00 1.2938534765172404e+01 4.3165631316927220e+00 0 0 0
150 1 4 -2.0795700914952292e-01 8.3995659095801027e+00 1.2638215814218462e+01 3.1610372827994833e+00 0 0 0
151 1 4 -2.4261758270584147e-01 1.0219257047003602e+01 1.3239105152713190e+01 4.4229903767756023e+00 0 0 0
152 1 2 -4.4238642378679451e-02 6.5923265824599291e+00 1.3132733094456846e+01 5.4638669814828544e+00 0 0 0
153 1 4 -1.6255952549685870e-01 6.1229083801469475e+00 1.3293359423394921e+01 4.2806324407983940e+00 1 0 0
154 1 4 -3.6836794480069818e-01 5.7274645867377680e+00 1.3449312907773226e+01 6.5787515222200224e+00 1 0 0
157 1 3 4.4932418017834230e-01 9.8766618906823762e+00 1.1936603684549283e+01 2.0520127314212488e+01 0 0 0
169 1 1 3.2585285697566213e-01 8.6038628970570024e+00 9.5382060078505653e+00 3.6355072474662613e+00 0 0 0
170 1 2 -6.8961488104999680e-01 7.1806071660104687e+00 9.6602492607346147e+00 3.5719668077924425e+00 0 0 0
171 1 3 4.3662940302491177e-01 6.6853776223991419e+00 9.5881256940452548e+00 2.6099908949537505e+00 0 0 0
172 1 3 6.0044265583794787e-01 6.7480923962135533e+00 9.6751553973494193e+00 4.7259497925019902e+00 0 0 0
173 1 2 -6.6514418924207686e-01 9.5279724735108573e+00 9.3276784562921566e+00 2.5036755354445335e+00 0 0 0
175 1 3 4.2799532836773913e-01 9.0431774556763074e+00 9.0549877338790896e+00 1.5625359306564324e+00 0 0 0
176 1 1 9.6450687393466267e-02 9.1966880765938175e+00 9.6688891024305708e+00 4.9266879767281617e+00 0 0 0
177 1 2 -3.5577410859594455e-02 8.2433350454486973e+00 9.7720109750140907e+00 6.0075612651808710e+00 0 0 0
178 1 4 -2.1325456087454464e-01 8.6737625496562369e+00 9.9121970190734938e+00 7.2169471379594210e+00 0 0 0
179 1 4 -3.7743414317432783e-01 6.8396906702930869e+00 9.8273412253521037e+00 5.8618797121794453e+00 0 0 0
183 1 1 3.7145176623980869e-01 4.5463076839674601e+00 1.3937271577479647e+01 1.3044099146160310e+01 1 0 0
184 1 2 -6.6389635686744009e-01 6.0080052974376343e+00 1.3820306114210801e+01 1.3153268074909429e+01 0 0 0
185 1 3 4.5837614840469526e-01 6.4240491988930177e+00 1.4085389832692025e+01 1.4140496343285896e+01 0 0 0
186 1 3 4.9158033800425760e-01 6.6456459045189913e+00 1.3790564505181186e+01 1.2173129201184457e+01 0 0 0
187 1 2 -7.0634841839698836e-01 3.6154853429603326e+00 1.4077929692774688e+01 1.4087327293808531e+01 1 0 0
189 1 3 5.0508632512189910e-01 3.7930997642549493e+00 1.3951666509153899e+01 1.5135314886611523e+01 1 0 0
190 1 1 1.0134439021538701e-01 3.9864004889255344e+00 1.3802843600125215e+01 1.1722977904856551e+01 1 0 0
191 1 2 -3.7089267406457439e-03 4.8730256939921004e+00 1.3791239680533446e+01 1.0496997690804688e+01 1 0 0
192 1 4 -2.0911855550912181e-01 4.3005212989982482e+00 1.3691328096731663e+01 9.3162828015947330e+00 1 0 0
193 1 4 -2.5769978765742796e-01 6.2033351594308721e+00 1.3884444409826864e+01 1.0590927384691485e+01 0 0 0
194 1 2 -1.2130013397912160e-02 2.5252683781161558e+00 1.3842069245947663e+01 1.1662304951028895e+01 1 0 0
199 1 3 4.7465574318666853e-01 3.2200583654066532e+00 1.3139220005554821e+01 7.7035544008382359e+00 1 0 0
200 1 3 5.8844814592458927e-01 3.0573402701382966e+00 1.2850773086491824e+01 5.6834315846857324e+00 1 0 0
211 1 1 3.4970968418486875e-01 4.1670772711281758e+00 1.2260984700477263e+01 2.1538437724874647e+01 0 0 -1
212 1 2 -6.9042418913648818e-01 2.7198393382667665e+00 1.2057485808898333e+01 2.1387491953494916e+01 0 0 -1
213 1 3 4.3257150049460841e-01 2.3820080991016397e+00 1.1957034493439284e+01 2.0300658304218047e+01 0 0 0
214 1 3 5.2055405133677646e-01 1.9910755209426951e+00 1.2174551635933568e+01 2.2198234888886724e+01 0 0 -1
215 1 2 -7.5086706296946681e-01 5.1756226234929938e+00 1.2188411976414299e+01 2.0538622176275702e+01 0 0 0
216 1 3 5.9159932920159863e-01 6.2617741056879872e+00 1.2442776364731525e+01 2.0968172432530139e+01 0 0 0
217 1 3 5.1697533181299093e-01 4.8378381262482479e+00 1.1779719632915034e+01 1.9642448068752500e+01 0 0 0
218 1 1 1.0907250764053775e-01 4.6682743063549612e+00 1.2645746904594628e+01 2.2826923305073244e+01 0 0 -1
219 1 2 -1.1044978009362338e-02 4.5289527531839493e+00 8.8271321635710400e+00 -3.5864130765257113e-01 0 0 0
220 1 4 -1.9241184148027396e-01 5.0058459267067672e+00 9.1316200709580979e+00 8.2928080202151877e-01 0 0 0
221 1 4 -2.3335331917098467e-01 3.2293988439171324e+00 8.6737874436545805e+00 -5.1439781204459778e-01 0 0 0
222 1 2 -1.8898789623022740e-02 6.0935730332189415e+00 1.2782684590904683e+01 2.3033897834293001e+01 0 0 -1
223 1 4 -1.8470138697626595e-01 7.4545071305846804e+00 9.0484014164623883e+00 -1.2742927767798640e-01 0 0 0
224 1 4 -3.4641286036744218e-01 6.9919319508500148e+00 1.2530893010907082e+01 2.1937951954939685e+01 0 0 -1
230 1 3 4.4395158578486682e-01 5.7756168593906088e-02 4.0221793632071723e+00 1.6338550636112835e+01 1 0 0
236 1 2 -4.1019776314289713e-04 -2.6189490801724102e-01 4.3469866507530499e+00 1.8662058835251969e+01 1 0 0
237 1 4 -1.9908772272004702e-01 6.3853556808701084e-02 4.3744205581134761e+00 1.9928939371476133e+01 1 0 0
238 1 4 -2.6492400591000231e-01 7.2012780087293926e-01 4.1678808512508798e+00 1.7770903308211331e+01 1 0 0
252 1 4 -2.5737833113317721e-01 8.9574898316368525e+00 9.2729330327246426e+00 2.3181900611271089e+01 -1 0 0
253 1 1 3.2681508567399298e-01 8.2305921580970782e+00 7.4841784054346263e+00 1.8029416548810794e+01 -1 0 0
254 1 2 -6.6885566843469113e-01 9.6027635148915333e+00 7.4549701602954652e+00 1.8145868302526956e+01 -1 0 0
257 1 2 -6.2489201822660367e-01 7.2493153863597417e+00 7.6329360196306553e+00 1.9165173469404905e+01 -1 0 0
258 1 3 4.5891488559729887e-01 6.2625331336434664e+00 8.1488874932182949e+00 1.8900718096548225e+01 -1 0 0
259 1 3 4.3241907094153637e-01 7.8802154570469582e+00 7.7310362891719038e+00 2.0081142559462570e+01 -1 0 0
260 1 1 1.0455528641091587e-01 7.8108010840671795e+00 7.3856960242879666e+00 1.6640633144610810e+01 -1 0 0
261 1 2 -3.6428234330872236e-02 8.7140328154443019e+00 7.3557688436593098e+00 1.5543989004979521e+01 -1 0 0
262 1 4 -2.0343564929348240e-01 8.2254024238441552e+00 7.2318589510162390e+00 1.4368672090286804e+01 -1 0 0
264 1 2 2.3767453176205093e-03 6.2409572836641649e+00 7.3021141532166682e+00 1.6473986164160976e+01 -1 0 0
265 1 4 -2.1709900129720994e-01 5.8639444212783260e+00 7.1290259699094127e+00 1.5243601028418359e+01 0 0 0
266 1 4 -2.2775814775420250e-01 5.3674511850385329e+00 7.3851184167777646e+00 1.7440685710770474e+01 0 0 0
268 1 2 -7.1063912021379305e-01 8.1668490010345565e+00 3.0724788218864214e+00 1.0353156135602299e+01 1 0 0
269 1 3 5.0382851126917227e-01 8.0656422545046969e+00 2.8614667949845733e+00 9.3527377930634117e+00 1 0 0
270 1 3 4.8008051959043907e-01 7.4490755385321572e+00 3.3214232795537586e+00 1.1256879220723922e+01 1 0 0
277 1 4 -2.4859823867094791e-01 7.5484188594766417e+00 3.3029089941768266e+00 1.2905407579209905e+01 1 0 0
281 1 1 3.6816192226405725e-01 5.2570987798331572e+00 3.8005260774381977e+00 1.6815622862300579e+01 1 0 0
282 1 2 -6.5890270854090038e-01 3.8263010931158887e+00 3.6346819267903943e+00 1.6724035362906832e+01 1 0 0
283 1 3 4.4030197322575104e-01 3.4552387830449698e+00 3.1863874508705061e+00 1.5769767562145047e+01 1 0 0
284 1 3 4.6431659574368422e-01 3.2301547974644111e+00 3.9936691177032166e+00 1.7673531983826209e+01 1 0 0
285 1 2 -6.9454981729352605e-01 6.1466531639716990e+00 3.6250823620679178e+00 1.5779013827122261e+01 1 0 0
286 1 3 5.6486336324823316e-01 7.3924947300681687e+00 3.8423319381647039e+00 1.6105214277363345e+01 1 0 0
287 1 3 4.7579025471972120e-01 5.8407123277294613e+00 3.4727693204116066e+00 1.4775772184434537e+01 1 0 0
288 1 1 1.1209235299515372e-01 5.8972918360334745e+00 4.1380471422967116e+00 1.8115328432206667e+01 1 0 0
289 1 2 -4.6901727815241677e-03 5.0388779361652203e+00 4.4754989760563291e+00 1.9247161697509092e+01 1 0 0
290 1 4 -2.0952794587635917e-01 5.5174721896879841e+00 4.7248289250066851e+00 2.0466848929403803e+01 1 0 0
291 1 4 -2.5529159820640607e-01 3.7029717923293282e+00 4.5800685502020695e+00 1.9083772609400796e+01 1 0 0
292 1 2 -2.1579721138495774e-02 7.3583729985306059e+00 4.0738462108825990e+00 1.8123317662526858e+01 1 0 0
293 1 4 -1.9045010295104195e-01 7.9591736329205887e+00 4.2375240383995010e+00 1.9235624315790467e+01 0 0 0
294 1 4 -3.7280948296329808e-01 8.1362695116583428e+00 3.9601532374835893e+00 1.6952028293104945e+01 0 0 0
295 1 1 3.4641746142471996e-01 5.0928322902693086e+00 5.1538673006728359e+00 -8.3665378039997185e-02 0 0 1
296 1 2 -6.8247578831751443e-01 6.5458852955663955e+00 5.3380384499781801e+00 9.1941076283387435e-02 -1 0 1
297 1 3 5.1243340482852728e-01 6.8732430135020275e+00 5.5975144914864732e+00 1.0387794415911409e+00 -1 0 0
298 1 3 4.5251116734515040e-01 6.3135423010063780e+00 9.1539591719425388e+00 2.3349413750537863e+01 -1 0 0
299 1 2 -7.0766890021378859e-01 4.1652260207320477e+00 5.1205447432442082e+00 9.8261644388295188e-01 0 0 0
300 1 3 6.4421603546327211e-01 3.0572019842853053e+00 5.0654833916552073e+00 5.1635249656149229e-01 0 0 0
301 1 3 4.7656937097167357e-01 4.5892982352455469e+00 5.2194789097477008e+00 2.0160228449178845e+00 0 0 0
302 1 1 1.0420941508581288e-01 3.6846360467251582e+00 8.8484058614057002e+00 2.2917543959152532e+01 0 0 0
303 1 2 -7.6175030161416343e-03 4.6255340521883941e+00 8.6799512063639117e+00 2.1746358090570105e+01 0 0 0
304 1 4 -2.0896387913133083e-01 4.1632664069677006e+00 8.5366854408301869e+00 2.0518647337399443e+01 0 0 0
305 1 4 -2.4057258953683691e-01 5.9443739875386461e+00 8.5981982621695607e+00 2.1869822128109163e+01 -1 0 0
306 1 2 -4.0003854623106155e-02 2.2649843522290936e+00 8.7406769388675229e+00 2.2881532956473905e+01 0 0 0
307 1 4 -1.9374839727610102e-01 1.7338035356602468e+00 8.5023286868038070e+00 2.1743243899681374e+01 0 0 0
308 1 4 -3.9395533008298017e-01 2.3017990935058696e+00 4.7652036383247207e+00 -2.3345140789244412e-01 0 0 1
309 1 1 3.0631214137862622e-01 8.1306889791173376e-01 7.6617262415451126e+00 1.8059390683477204e+01 0 0 0
310 1 2 -6.6038033442530109e-01 2.2746397367338766e+00 7.7838408603318516e+00 1.8309076611814177e+01 0 0 0
311 1 3 4.2466188828882623e-01 2.6916200904507193e+00 7.9664143243071273e+00 1.9335501618239135e+01 0 0 0
312 1 3 4.8325182173334696e-01 2.9119108190622978e+00 7.3824859909576173e+00 1.7463087933760519e+01 0 0 0
316 1 1 8.6623002143455169e-02 4.2377979012733413e-01 7.2327925911717745e+00 1.6829007891555015e+01 0 0 0
317 1 2 -2.5361086110203428e-02 1.4250459971449876e+00 6.7882510112177421e+00 1.5795951752704367e+01 0 0 0
318 1 4 -1.8049756767299524e-01 9.6264000638721114e-01 6.2965981456330713e+00 1.4660350423428357e+01 0 0 0
319 1 4 -2.4287656860944745e-01 2.7444896819726394e+00 6.8355144373294392e+00 1.5908600396539564e+01 0 0 0
323 1 1 3.5063681375827599e-01 2.0466587532108851e+00 3.2353739121558824e+00 1.0755813120402101e+01 1 0 0
324 1 2 -7.0160101002835773e-01 5.5732848914213706e-01 3.3765857902850973e+00 1.0486328256029289e+01 1 0 0
325 1 3 4.7756108211698506e-01 2.2350638621702634e-01 3.2469134642068695e+00 9.4497819312380802e+00 1 0 0
326 1 3 5.1215891198171470e-01 -1.0154502556203360e-01 3.3547862440497176e+00 1.1393508946961671e+01 1 0 0
327 1 2 -7.1765564179479135e-01 3.0779878865828931e+00 3.2874231292798224e+00 9.8015212573982424e+00 1 0 0
328 1 3 5.5836660842206753e-01 4.1858217100188968e+00 3.1216438890047487e+00 1.0304795859545523e+01 1 0 0
329 1 3 4.9528394925651020e-01 2.8199153118320064e+00 3.3937598152930057e+00 8.7960266359017787e+00 1 0 0
330 1 1 8.4845340702277297e-02 2.4559219598444484e+00 3.0549002069157076e+00 1.2096137293689429e+01 1 0 0
331 1 2 -1.0925768996908475e-02 1.3887673584310467e+00 3.0396483802355023e+00 1.3195662701133029e+01 1 0 0
332 1 4 -2.0135070377310099e-01 1.9713612033338790e+00 2.8837604961650012e+00 1.4349144717379923e+01 1 0 0
333 1 4 -2.4420007301399618e-01 1.0893668808508816e-01 3.2229880665012987e+00 1.3033375128233821e+01 1 0 0
334 1 2 -1.8564265949687991e-02 3.8742298582502599e+00 2.9142201014016806e+00 1.2351681341648623e+01 1 0 0
335 1 4 -2.1048107353910472e-01 4.3617575420269183e+00 2.7416273703995859e+00 1.3516907819780799e+01 1 0 0
336 1 4 -3.4183571475769281e-01 4.8429901168332279e+00 2.9611076808683716e+00 1.1309657929817279e+01 1 0 0
337 1 1 3.3564673887848839e-01 4.8483885601044863e-01 1.0584261655022390e+01 1.5848302791285986e+01 0 0 0
341 1 2 -7.0782404421398359e-01 1.4634001214420418e+00 1.0386479039163543e+01 1.4828911641802897e+01 0 0 0
342 1 3 5.7479093543983517e-01 2.5979868264836208e+00 1.0493095213737476e+01 1.5266472705712273e+01 0 0 0
343 1 3 4.6122333209972188e-01 1.2061179294671187e+00 1.0544204272517922e+01 1.3794216613078301e+01 0 0 0
344 1 1 1.0193371437081321e-01 1.1091620414443260e+00 1.0946782831188390e+01 1.7072160379563790e+01 0 0 0
345 1 2 -7.5686241074217550e-03 1.4993113967933263e+01 1.1349863502071385e+01 1.8180441495544208e+01 -1 0 0
346 1 4 -2.1468046323864878e-01 6.3708349537816522e-01 1.1519692695896826e+01 1.9404340152621202e+01 0 0 0
348 1 2 -1.4591362267131078e-02 2.5865314428408803e+00 1.0983170357593234e+01 1.7175575786346947e+01 0 0 0
349 1 4 -2.0505916620660311e-01 3.0798068894076271e+00 1.1241991868560362e+01 1.8324489561728029e+01 0 0 0
350 1 4 -3.4796320407207576e-01 3.4157379281650520e+00 1.0793751425062950e+01 1.6061180884135759e+01 0 0 0
351 1 1 3.2479898606866237e-01 1.2437876683012446e+01 1.2250646147954571e+01 8.0330581166994031e-01 0 0 1
355 1 2 -6.2461028539103047e-01 1.1520201264634467e+01 1.2406147794144182e+01 1.9032208051799762e+00 0 0 0
356 1 3 4.5263603536633346e-01 1.0298287303970048e+01 1.2456464405805090e+01 1.6119718944382244e+00 0 0 0
357 1 3 4.5036497694496852e-01 1.1977242047573002e+01 1.2669201830220857e+01 2.8604882569551995e+00 0 0 0
358 1 1 1.1869173497858312e-01 1.1871937575195020e+01 1.2105337392479834e+01 -4.7144167069118958e-01 0 0 1
359 1 2 8.4985569100746207e-03 1.1968666289114966e+01 1.5687368033625116e+01 2.2644039169693649e+01 0 0 0
360 1 4 -2.2106689762603143e-01 1.1420888260699593e+01 1.5563991782779077e+01 2.1477645935942917e+01 0 0 0
362 1 2 -8.9648940698090485e-03 1.0405717120746859e+01 1.2216483347691357e+01 -6.3983662386918716e-01 0 0 1
363 1 4 -1.8685509608382486e-01 9.1327842012201224e+00 1.5951984732467004e+01 2.2461586316023570e+01 0 0 0
364 1 4 -2.8060319181929277e-01 9.4889878959851153e+00 1.2507891091639337e+01 3.1902348330881636e-01 0 0 1
365 1 1 3.5167145510788861e-01 8.2241846895078865e+00 1.4777246335908071e+01 1.8885633173382644e+01 0 0 0
366 1 2 -7.4330953800158117e-01 9.6198724795173298e+00 1.4702952741749815e+01 1.8995376436268998e+01 0 0 0
367 1 3 4.6807056181689644e-01 1.0117369954620266e+01 1.4868856914920791e+01 1.9898760641456740e+01 0 0 0
368 1 3 5.9409446874885707e-01 1.0081606480193786e+01 1.4683283321849085e+01 1.7876156178976430e+01 0 0 0
369 1 2 -7.2940069273244668e-01 7.2300824792177254e+00 1.5141875461185611e+01 1.9929597333529202e+01 0 0 0
370 1 3 4.8963356221594639e-01 6.1508559124362030e+00 1.5209116564723836e+01 1.9571825834027976e+01 0 0 0
371 1 3 5.0513659963354807e-01 7.5424475310862498e+00 1.5298273823055860e+01 2.0913795237447282e+01 0 0 0
372 1 1 8.4597829145634559e-02 7.7081025990119834e+00 1.4459068761598640e+01 1.7577465531904124e+01 0 0 0
373 1 2 -1.9920124916167355e-02 8.7310398150000399e+00 1.4091390642533364e+01 1.6532943113655172e+01 0 0 0
374 1 4 -1.9808764185662145e-01 8.3465611723302402e+00 1.3705067440246223e+01 1.5361535925879087e+01 0 0 0
375 1 4 -3.6942599876327409e-01 1.0077306786200474e+01 1.4271666804896867e+01 1.6769253818616107e+01 0 0 0
376 1 2 -1.8921204271207283e-03 6.2242170042920355e+00 1.4322058100825700e+01 1.7316727368813680e+01 0 0 0
377 1 4 -2.1573914872179220e-01 5.7147184912250655e+00 1.4105847873022832e+01 1.6152008120509123e+01 1 0 0
378 1 4 -2.6007764281315376e-01 5.3527536269308005e+00 1.4846879422788751e+01 1.8217170834821808e+01 1 0 0
381 1 3 4.2730787900898248e-01 1.0188556645018934e+01 9.7953268529006863e+00 8.6090819375434773e+00 0 0 0
382 1 3 4.9309638228687713e-01 9.8392980432206798e+00 1.0377504279586249e+01 1.0612040996335384e+01 0 0 0
392 1 4 -3.4310361075020585e-01 1.4677863826195759e+01 1.0850154563677457e+01 1.0287911390048446e+01 -1 0 0
393 1 1 3.4498060131259872e-01 8.1738538350280852e+00 1.0613021401905758e+01 1.5833350251201219e+01 0 0 0
394 1 2 -7.0853781765459800e-01 6.7700962759434713e+00 1.0501648495315640e+01 1.5760807670871435e+01 0 0 0
395 1 3 4.8091422112084597e-01 6.2500456216726494e+00 1.0518238206348554e+01 1.4789947128036037e+01 0 0 0
396 1 3 6.1543336401307069e-01 6.3124357156263375e+00 1.0543406218367236e+01 1.6906186343849896e+01 0 0 0
397 1 2 -7.3888152172183430e-01 9.1697522558259514e+00 1.0730995514983952e+01 1.4718339744750754e+01 0 0 0
399 1 3 5.3130122389833678e-01 8.7258322570929749e+00 1.0473258539587784e+01 1.3782202837448635e+01 0 0 0
400 1 1 9.9723319130178539e-02 8.6671847754238005e+00 1.0789237551470178e+01 1.7159238362227768e+01 0 0 0
401 1 2 -4.4570181843635689e-02 7.6850571676149677e+00 1.0815616120808844e+01 1.8213062625441275e+01 0 0 0
402 1 4 -1.7611427180097597e-01 7.9846558720415199e+00 1.1255416975947867e+01 1.9423718278250576e+01 0 0 0
403 1 4 -3.9623555428268881e-01 6.2901228088790191e+00 1.0723984882431107e+01 1.7990582241186907e+01 0 0 0
407 1 1 3.2686487601423203e-01 5.2148066320254536e+00 1.2266939045873009e+01 3.4455777259044207e-01 1 0 1
408 1 2 -6.8203650574890862e-01 6.6083942680428631e+00 1.2145171417764182e+01 3.7295662483668135e-01 0 0 1
409 1 3 4.4196770732356944e-01 7.2608405886450793e+00 1.2375906425891472e+01 1.2177445234688240e+00 0 0 0
410 1 3 5.8437011069620703e-01 6.0911430200482366e+00 1.5991946511982299e+01 2.3499775449564986e+01 0 0 0
411 1 2 -6.6441578439931903e-01 4.3131200621838151e+00 1.2347015455747643e+01 1.5435651611024666e+00 1 0 0
412 1 3 4.5253178940851940e-01 3.2820835886072661e+00 1.1899259495975768e+01 1.3614354031203741e+00 1 0 0
413 1 3 4.5010284098372222e-01 4.6274483108851880e+00 1.3014016897685870e+01 2.3459192280717831e+00 1 0 0
414 1 1 8.7036948156291358e-02 3.7215918223639042e+00 1.6011187708992793e+01 2.3401624077251896e+01 1 0 0
415 1 2 -4.0032636599833110e-02 4.6107387759638740e+00 1.5815331748075860e+01 2.2267872471046232e+01 1 0 0
416 1 4 -2.2347045029900997e-01 4.0890939876273364e+00 1.5891077051712941e+01 2.1097319004738942e+01 1 0 0
417 1 4 -3.8716068643725043e-01 6.0093776609734650e+00 1.5707697648548990e+01 2.2398952542659757e+01 0 0 0
418 1 2 7.2063845782829698e-03 2.1395863936682096e+00 1.6129782992561481e+01 2.3295584070205933e+01 1 0 0
422 1 2 -7.2090455659044583e-01 1.8152064447395801e+00 1.5264127782890998e+01 1.9332714305640792e+01 1 0 0
423 1 3 5.0586067281801494e-01 2.2282716284035242e+00 1.5610691020347446e+01 2.0227612358061741e+01 1 0 0
424 1 3 5.5256844972072083e-01 2.4938362949560879e+00 1.5066996245307164e+01 1.8267418770398429e+01 1 0 0
431 1 4 -3.5274322538626468e-01 2.5505085551682956e+00 1.4591904344895456e+01 1.7216459896393729e+01 1 0 0