ITEM: TIMESTEP
0
ITEM: NUMBER OF ATOMS
672
ITEM: BOX BOUNDS xy xz yz pp pp pp
0.0000000000000000e+00 2.9982000351000000e+01 0.0000000000000000e+00
0.0000000000000000e+00 1.2154000282300000e+01 0.0000000000000000e+00
0.0000000000000000e+00 2.0017000198400002e+01 0.0000000000000000e+00
ITEM: ATOMS id type xs ys zs
1 1 0.141737 0.0702469 0.15481
2 1 0.641737 0.0702469 0.15481
3 1 0.358263 0.929753 0.65481
4 1 0.858263 0.929753 0.65481
5 1 0.391737 0.929753 0.15481
6 1 0.891737 0.929753 0.15481
7 1 0.108263 0.0702469 0.65481
8 1 0.608263 0.0702469 0.65481
9 1 0.141737 0.570247 0.15481
10 1 0.641737 0.570247 0.15481
11 1 0.358263 0.429753 0.65481
12 1 0.858263 0.429753 0.65481
13 1 0.391737 0.429753 0.15481
14 1 0.891737 0.429753 0.15481
15 1 0.108263 0.570247 0.65481
16 1 0.608263 0.570247 0.65481
17 1 0.188976 0.0446635 0.151695
18 1 0.688976 0.0446635 0.151695
19 1 0.311024 0.955337 0.651695
20 1 0.811024 0.955337 0.651695
21 1 0.438976 0.955337 0.151695
22 1 0.938976 0.955337 0.151695
23 1 0.0610237 0.0446635 0.651695
24 1 0.561024 0.0446635 0.651695
25 1 0.188976 0.544664 0.151695
26 1 0.688976 0.544664 0.151695
27 1 0.311024 0.455336 0.651695
28 1 0.811024 0.455336 0.651695
29 1 0.438976 0.455336 0.151695
30 1 0.938976 0.455336 0.151695
31 1 0.0610238 0.544664 0.651695
32 1 0.561024 0.544664 0.651695
33 1 0.215338 0.114614 0.110309
34 1 0.715338 0.114614 0.110309
35 1 0.284662 0.885386 0.610309
36 1 0.784662 0.885386 0.610309
37 1 0.465338 0.885386 0.110309
38 1 0.965338 0.885386 0.110309
39 1 0.0346623 0.114614 0.610309
40 1 0.534662 0.114614 0.610309
41 1 0.215338 0.614614 0.110309
42 1 0.715338 0.614614 0.110309
43 1 0.284662 0.385386 0.610309
44 1 0.784663 0.385386 0.610309
45 1 0.465338 0.385386 0.110309
46 1 0.965338 0.385386 0.110309
47 1 0.0346625 0.614614 0.610309
48 1 0.534663 0.614614 0.610309
49 1 0.195248 0.201576 0.0727719
50 1 0.695248 0.201576 0.0727719
51 1 0.304752 0.798424 0.572772
52 1 0.804752 0.798424 0.572772
53 1 0.445248 0.798424 0.0727719
54 1 0.945248 0.798424 0.0727719
55 1 0.0547516 0.201576 0.572772
56 1 0.554752 0.201576 0.572772
57 1 0.195248 0.701576 0.0727719
58 1 0.695248 0.701576 0.0727719
59 1 0.304752 0.298424 0.572772
60 1 0.804752 0.298424 0.572772
61 1 0.445248 0.298424 0.0727719
62 1 0.945248 0.298424 0.0727719
63 1 0.0547517 0.701576 0.572772
64 1 0.554752 0.701576 0.572772
65 1 0.148074 0.222317 0.0781798
66 1 0.648074 0.222317 0.0781798
67 1 0.351926 0.777683 0.57818
68 1 0.851926 0.777683 0.57818
69 1 0.398074 0.777683 0.0781798
70 1 0.898074 0.777683 0.0781798
71 1 0.101926 0.222317 0.57818
72 1 0.601926 0.222317 0.57818
73 1 0.148074 0.722317 0.0781799
74 1 0.648074 0.722317 0.0781799
75 1 0.351926 0.277683 0.57818
76 1 0.851926 0.277683 0.57818
77 1 0.398074 0.277683 0.0781799
78 1 0.898074 0.277683 0.0781799
79 1 0.101926 0.722317 0.57818
80 1 0.601925 0.722317 0.57818
81 1 0.120142 0.156122 0.118539
82 1 0.620142 0.156122 0.118539
83 1 0.379858 0.843878 0.618539
84 1 0.879858 0.843878 0.618539
85 1 0.370142 0.843878 0.118539
86 1 0.870142 0.843878 0.118539
87 1 0.129858 0.156122 0.618539
88 1 0.629858 0.156122 0.618539
89 1 0.120141 0.656122 0.118539
90 1 0.620141 0.656122 0.118539
91 1 0.379859 0.343878 0.618539
92 1 0.879859 0.343878 0.618539
93 1 0.370141 0.343878 0.118539
94 1 0.870141 0.343878 0.118539
95 1 0.129859 0.656122 0.618539
96 1 0.629859 0.656122 0.618539
97 1 0.115508 0.999087 0.205327
98 1 0.615508 0.999087 0.205328
99 1 0.384492 0.000913076 0.705328
100 1 0.884492 0.00091308 0.705328
101 1 0.365508 0.000913076 0.205327
102 1 0.865508 0.000913077 0.205328
103 1 0.134492 0.999087 0.705328
104 1 0.634492 0.999087 0.705328
105 1 0.115508 0.499087 0.205328
106 1 0.615508 0.499087 0.205328
107 1 0.384492 0.500913 0.705328
108 1 0.884492 0.500913 0.705328
109 1 0.365508 0.500913 0.205328
110 1 0.865508 0.500913 0.205328
111 1 0.134492 0.499087 0.705328
112 1 0.634492 0.499087 0.705328
113 1 0.26382 0.184901 0.844465
114 1 0.763821 0.184901 0.844465
115 1 0.23618 0.815099 0.344465
116 1 0.73618 0.815099 0.344465
117 1 0.0138204 0.815099 0.844465
118 1 0.51382 0.815099 0.844465
119 1 0.486179 0.184901 0.344465
120 1 0.986179 0.184901 0.344465
121 1 0.26382 0.684901 0.844465
122 1 0.76382 0.684901 0.844465
123 1 0.23618 0.315099 0.344465
124 1 0.73618 0.315099 0.344465
125 1 0.0138204 0.315099 0.844465
126 1 0.51382 0.315099 0.844465
127 1 0.48618 0.684901 0.344465
128 1 0.98618 0.684901 0.344465
129 1 0.311109 0.203368 0.84805
130 1 0.811109 0.203368 0.84805
131 1 0.188891 0.796632 0.34805
132 1 0.688891 0.796632 0.34805
133 1 0.0611092 0.796632 0.84805
134 1 0.561109 0.796632 0.84805
135 1 0.438891 0.203368 0.34805
136 1 0.938891 0.203368 0.34805
137 1 0.311109 0.703368 0.84805
138 1 0.811109 0.703368 0.84805
139 1 0.188891 0.296632 0.34805
140 1 0.688891 0.296632 0.34805
141 1 0.0611092 0.296632 0.84805
142 1 0.561109 0.296632 0.84805
143 1 0.438891 0.703368 0.34805
144 1 0.938891 0.703368 0.34805
145 1 0.336911 0.132551 0.889901
146 1 0.836911 0.132551 0.889901
147 1 0.163089 0.867449 0.389901
148 1 0.663089 0.867449 0.389901
149 1 0.0869107 0.867449 0.889901
150 1 0.586911 0.867449 0.889901
151 1 0.413089 0.132551 0.389901
152 1 0.913089 0.132551 0.389901
153 1 0.336911 0.632551 0.889901
154 1 0.836911 0.632551 0.889901
155 1 0.163089 0.367449 0.389901
156 1 0.663089 0.367449 0.389901
157 1 0.0869107 0.367449 0.889901
158 1 0.586911 0.367449 0.889901
159 1 0.413089 0.632551 0.389901
160 1 0.913089 0.632551 0.389901
161 1 0.316948 0.0427771 0.925058
162 1 0.816948 0.0427771 0.925058
163 1 0.183052 0.957223 0.425058
164 1 0.683052 0.957223 0.425058
165 1 0.0669475 0.957223 0.925058
166 1 0.566948 0.957223 0.925058
167 1 0.433052 0.0427771 0.425058
168 1 0.933052 0.0427771 0.425058
169 1 0.316948 0.542777 0.925058
170 1 0.816948 0.542777 0.925058
171 1 0.183052 0.457223 0.425058
172 1 0.683052 0.457223 0.425058
173 1 0.0669475 0.457223 0.925058
174 1 0.566948 0.457223 0.925058
175 1 0.433052 0.542777 0.425058
176 1 0.933052 0.542777 0.425058
177 1 0.270215 0.0229598 0.919217
178 1 0.770215 0.0229598 0.919217
179 1 0.229785 0.97704 0.419217
180 1 0.729785 0.97704 0.419217
181 1 0.020215 0.97704 0.919217
182 1 0.520215 0.97704 0.919217
183 1 0.479785 0.0229598 0.419217
184 1 0.979785 0.0229598 0.419217
185 1 0.270215 0.52296 0.919217
186 1 0.770215 0.52296 0.919217
187 1 0.229785 0.47704 0.419217
188 1 0.729785 0.47704 0.419217
189 1 0.020215 0.47704 0.919217
190 1 0.520215 0.47704 0.919217
191 1 0.479785 0.52296 0.419217
192 1 0.979785 0.52296 0.419217
193 1 0.24283 0.096432 0.881002
194 1 0.74283 0.096432 0.881002
195 1 0.25717 0.903568 0.381002
196 1 0.75717 0.903568 0.381002
197 1 0.49283 0.903568 0.881002
198 1 0.99283 0.903568 0.881002
199 1 0.00716994 0.096432 0.381002
200 1 0.50717 0.096432 0.381002
201 1 0.24283 0.596432 0.881002
202 1 0.74283 0.596432 0.881002
203 1 0.25717 0.403568 0.381002
204 1 0.75717 0.403568 0.381002
205 1 0.49283 0.403568 0.881002
206 1 0.99283 0.403568 0.881002
207 1 0.00716993 0.596432 0.381002
208 1 0.50717 0.596432 0.381002
209 1 0.23156 0.250311 0.799444
210 1 0.73156 0.250311 0.799444
211 1 0.26844 0.749689 0.299444
212 1 0.76844 0.749689 0.299444
213 1 0.48156 0.749689 0.799444
214 1 0.98156 0.749689 0.799444
215 1 0.01844 0.250311 0.299444
216 1 0.51844 0.250311 0.299444
217 1 0.23156 0.750311 0.799444
218 1 0.73156 0.750311 0.799444
219 1 0.26844 0.249689 0.299444
220 1 0.76844 0.249689 0.299444
221 1 0.48156 0.249689 0.799444
222 1 0.98156 0.249689 0.799444
223 1 0.01844 0.750311 0.299444
224 1 0.51844 0.750311 0.299444
225 2 0.211317 0.957902 0.193344
226 2 0.711317 0.957902 0.193344
227 2 0.288683 0.042098 0.693344
228 2 0.788683 0.042098 0.693344
229 2 0.461317 0.0420981 0.193344
230 2 0.961317 0.042098 0.193344
231 2 0.0386834 0.957902 0.693344
232 2 0.538683 0.957902 0.693344
233 2 0.211316 0.457902 0.193344
234 2 0.711316 0.457902 0.193344
235 2 0.288684 0.542098 0.693344
236 2 0.788684 0.542098 0.693344
237 2 0.461316 0.542098 0.193344
238 2 0.961316 0.542098 0.193344
239 2 0.0386835 0.457902 0.693344
240 2 0.538684 0.457902 0.693344
241 2 0.222773 0.271283 0.0274498
242 2 0.722773 0.271283 0.0274498
243 2 0.277227 0.728717 0.52745
244 2 0.777227 0.728717 0.52745
245 2 0.472773 0.728717 0.0274498
246 2 0.972773 0.728717 0.0274498
247 2 0.0272274 0.271283 0.52745
248 2 0.527227 0.271283 0.52745
249 2 0.222773 0.771283 0.0274498
250 2 0.722773 0.771283 0.0274498
251 2 0.277227 0.228717 0.52745
252 2 0.777227 0.228717 0.52745
253 2 0.472773 0.228717 0.0274498
254 2 0.972773 0.228717 0.0274498
255 2 0.0272274 0.771283 0.52745
256 2 0.527227 0.771283 0.52745
257 2 0.0700811 0.175678 0.121851
258 2 0.570081 0.175678 0.121851
259 2 0.429919 0.824322 0.621851
260 2 0.929919 0.824322 0.621851
261 2 0.320081 0.824322 0.121851
262 2 0.820081 0.824322 0.121851
263 2 0.179919 0.175678 0.621851
264 2 0.679919 0.175678 0.621851
265 2 0.0700813 0.675677 0.121851
266 2 0.570081 0.675677 0.121851
267 2 0.429919 0.324322 0.621851
268 2 0.929919 0.324323 0.621851
269 2 0.320081 0.324322 0.121851
270 2 0.820081 0.324322 0.121851
271 2 0.179919 0.675677 0.621851
272 2 0.679919 0.675678 0.621851
273 2 0.334765 0.289086 0.807453
274 2 0.834765 0.289086 0.807453
275 2 0.165235 0.710914 0.307453
276 2 0.665235 0.710914 0.307453
277 2 0.0847652 0.710914 0.807453
278 2 0.584765 0.710914 0.807453
279 2 0.415235 0.289086 0.307453
280 2 0.915235 0.289086 0.307453
281 2 0.334765 0.789087 0.807453
282 2 0.834765 0.789086 0.807453
283 2 0.165235 0.210914 0.307453
284 2 0.665235 0.210914 0.307453
285 2 0.0847652 0.210914 0.807453
286 2 0.584765 0.210914 0.807453
287 2 0.415235 0.789086 0.307453
288 2 0.915235 0.789086 0.307453
289 2 0.344894 0.969504 0.968159
290 2 0.844894 0.969504 0.968159
291 2 0.155106 0.030496 0.468159
292 2 0.655106 0.030496 0.468159
293 2 0.0948936 0.030496 0.968159
294 2 0.594894 0.030496 0.968159
295 2 0.405106 0.969504 0.468159
296 2 0.905106 0.969504 0.468159
297 2 0.344894 0.469504 0.968159
298 2 0.844894 0.469504 0.968159
299 2 0.155106 0.530496 0.468159
300 2 0.655106 0.530496 0.468159
301 2 0.0948936 0.530496 0.968159
302 2 0.594894 0.530496 0.968159
303 2 0.405106 0.469504 0.468159
304 2 0.905106 0.469504 0.468159
305 2 0.193433 0.0779305 0.87984
306 2 0.693433 0.0779305 0.87984
307 2 0.306567 0.92207 0.37984
308 2 0.806567 0.92207 0.37984
309 2 0.443433 0.92207 0.87984
310 2 0.943433 0.92207 0.87984
311 2 0.056567 0.0779305 0.37984
312 2 0.556567 0.0779305 0.37984
313 2 0.193433 0.57793 0.87984
314 2 0.693433 0.57793 0.87984
315 2 0.306567 0.42207 0.37984
316 2 0.806567 0.42207 0.37984
317 2 0.443433 0.42207 0.87984
318 2 0.943433 0.42207 0.87984
319 2 0.056567 0.57793 0.37984
320 2 0.556567 0.57793 0.37984
321 3 0.193121 0.862007 0.193811
322 3 0.693121 0.862007 0.193811
323 3 0.306879 0.137993 0.693811
324 3 0.806879 0.137993 0.693811
325 3 0.443121 0.137993 0.193811
326 3 0.943121 0.137993 0.193811
327 3 0.0568791 0.862007 0.693811
328 3 0.556879 0.862007 0.693811
329 3 0.193121 0.362007 0.193811
330 3 0.693121 0.362007 0.193811
331 3 0.306879 0.637993 0.693811
332 3 0.806879 0.637993 0.693811
333 3 0.443121 0.637993 0.193811
334 3 0.943121 0.637993 0.193811
335 3 0.0568791 0.362007 0.693811
336 3 0.556879 0.362007 0.693811
337 3 0.247865 0.985765 0.222373
338 3 0.747865 0.985765 0.222373
339 3 0.252135 0.0142354 0.722373
340 3 0.752135 0.0142354 0.722373
341 3 0.497865 0.0142354 0.222373
342 3 0.997865 0.0142354 0.222373
343 3 0.00213534 0.985765 0.722373
344 3 0.502135 0.985765 0.722373
345 3 0.247865 0.485765 0.222373
346 3 0.747864 0.485765 0.222373
347 3 0.252135 0.514235 0.722373
348 3 0.752136 0.514235 0.722373
349 3 0.497865 0.514235 0.222373
350 3 0.997864 0.514235 0.222373
351 3 0.00213549 0.485765 0.722373
352 3 0.502136 0.485765 0.722373
353 3 0.259573 0.230093 0.00575754
354 3 0.759573 0.230093 0.00575752
355 3 0.240427 0.769907 0.505758
356 3 0.740427 0.769907 0.505758
357 3 0.00957286 0.769907 0.00575754
358 3 0.509573 0.769907 0.00575754
359 3 0.490427 0.230093 0.505758
360 3 0.990427 0.230093 0.505758
361 3 0.259573 0.730093 0.00575753
362 3 0.759573 0.730093 0.00575751
363 3 0.240427 0.269907 0.505758
364 3 0.740427 0.269907 0.505758
365 3 0.00957289 0.269907 0.00575752
366 3 0.509573 0.269907 0.00575752
367 3 0.490427 0.730093 0.505758
368 3 0.990427 0.730093 0.505758
369 3 0.207893 0.367947 0.0130318
370 3 0.707893 0.367947 0.0130318
371 3 0.292107 0.632053 0.513032
372 3 0.792107 0.632053 0.513032
373 3 0.457893 0.632053 0.0130318
374 3 0.957893 0.632053 0.0130318
375 3 0.0421074 0.367947 0.513032
376 3 0.542107 0.367947 0.513032
377 3 0.207893 0.867947 0.0130318
378 3 0.707893 0.867947 0.0130318
379 3 0.292107 0.132053 0.513032
380 3 0.792107 0.132053 0.513032
381 3 0.457893 0.132053 0.0130318
382 3 0.957893 0.132053 0.0130318
383 3 0.0421074 0.867947 0.513032
384 3 0.542107 0.867947 0.513032
385 3 0.0581457 0.274892 0.135177
386 3 0.558146 0.274892 0.135177
387 3 0.441854 0.725108 0.635177
388 3 0.941854 0.725108 0.635177
389 3 0.308146 0.725108 0.135177
390 3 0.808146 0.725108 0.135177
391 3 0.191854 0.274892 0.635177
392 3 0.691854 0.274892 0.635177
393 3 0.0581458 0.774892 0.135177
394 3 0.558146 0.774892 0.135177
395 3 0.441854 0.225108 0.635177
396 3 0.941854 0.225108 0.635177
397 3 0.308146 0.225108 0.135177
398 3 0.808146 0.225108 0.135177
399 3 0.191854 0.774892 0.635177
400 3 0.691854 0.774892 0.635177
401 3 0.0451956 0.0918072 0.111015
402 3 0.545196 0.0918072 0.111015
403 3 0.454804 0.908193 0.611015
404 3 0.954804 0.908193 0.611015
405 3 0.295196 0.908193 0.111015
406 3 0.795196 0.908193 0.111015
407 3 0.204804 0.0918072 0.611015
408 3 0.704804 0.0918072 0.611015
409 3 0.0451956 0.591807 0.111015
410 3 0.545196 0.591807 0.111015
411 3 0.454804 0.408193 0.611015
412 3 0.954804 0.408193 0.611015
413 3 0.295196 0.408193 0.111015
414 3 0.795196 0.408193 0.111015
415 3 0.204804 0.591807 0.611015
416 3 0.704804 0.591807 0.611015
417 3 0.316456 0.384789 0.804768
418 3 0.816456 0.384789 0.804768
419 3 0.183544 0.615212 0.304768
420 3 0.683544 0.615212 0.304768
421 3 0.0664557 0.615212 0.804768
422 3 0.566456 0.615211 0.804768
423 3 0.433544 0.384789 0.304768
424 3 0.933544 0.384789 0.304768
425 3 0.316456 0.884788 0.804768
426 3 0.816456 0.884788 0.804768
427 3 0.183544 0.115212 0.304768
428 3 0.683544 0.115211 0.304768
429 3 0.0664557 0.115212 0.804768
430 3 0.566456 0.115211 0.804768
431 3 0.433544 0.884788 0.304768
432 3 0.933544 0.884788 0.304768
433 3 0.372263 0.261648 0.780075
434 3 0.872263 0.261648 0.780075
435 3 0.127737 0.738352 0.280075
436 3 0.627737 0.738352 0.280075
437 3 0.122263 0.738352 0.780075
438 3 0.622263 0.738352 0.780075
439 3 0.377737 0.261648 0.280075
440 3 0.877737 0.261648 0.280075
441 3 0.372263 0.761648 0.780075
442 3 0.872263 0.761648 0.780075
443 3 0.127737 0.238352 0.280075
444 3 0.627737 0.238352 0.280075
445 3 0.122263 0.238352 0.780075
446 3 0.622263 0.238352 0.780075
447 3 0.377737 0.761648 0.280075
448 3 0.877737 0.761648 0.280075
449 3 0.378584 0.0141882 0.997531
450 3 0.878584 0.0141882 0.997531
451 3 0.121416 0.985812 0.497531
452 3 0.621416 0.985812 0.497531
453 3 0.128584 0.985812 0.997531
454 3 0.628584 0.985812 0.997531
455 3 0.371416 0.0141882 0.497531
456 3 0.871416 0.0141882 0.497531
457 3 0.378584 0.514188 0.997531
458 3 0.878584 0.514188 0.997531
459 3 0.121416 0.485812 0.497531
460 3 0.621416 0.485812 0.497531
461 3 0.128584 0.485812 0.997531
462 3 0.628584 0.485812 0.997531
463 3 0.371416 0.514188 0.497531
464 3 0.871416 0.514188 0.497531
465 3 0.33319 0.868203 0.972803
466 3 0.83319 0.868203 0.972803
467 3 0.16681 0.131797 0.472803
468 3 0.66681 0.131797 0.472803
469 3 0.08319 0.131797 0.972803
470 3 0.58319 0.131797 0.972803
471 3 0.41681 0.868203 0.472803
472 3 0.91681 0.868203 0.472803
473 3 0.33319 0.368203 0.972803
474 3 0.83319 0.368203 0.972803
475 3 0.16681 0.631797 0.472803
476 3 0.66681 0.631797 0.472803
477 3 0.0831901 0.631797 0.972803
478 3 0.58319 0.631797 0.972803
479 3 0.41681 0.368203 0.472803
480 3 0.91681 0.368203 0.472803
481 3 0.180497 0.982997 0.858794
482 3 0.680497 0.982997 0.858794
483 3 0.319503 0.017003 0.358794
484 3 0.819503 0.017003 0.358794
485 3 0.430497 0.017003 0.858794
486 3 0.930497 0.017003 0.858794
487 3 0.0695035 0.982997 0.358794
488 3 0.569503 0.982997 0.358794
489 3 0.180497 0.482997 0.858794
490 3 0.680497 0.482997 0.858794
491 3 0.319503 0.517003 0.358794
492 3 0.819503 0.517003 0.358794
493 3 0.430497 0.517003 0.858794
494 3 0.930497 0.517003 0.858794
495 3 0.0695035 0.482997 0.358794
496 3 0.569503 0.482997 0.358794
497 3 0.169604 0.158105 0.901193
498 3 0.669604 0.158105 0.901193
499 3 0.330396 0.841895 0.401193
500 3 0.830396 0.841895 0.401193
501 3 0.419604 0.841895 0.901193
502 3 0.919604 0.841895 0.901193
503 3 0.0803965 0.158105 0.401193
504 3 0.580396 0.158105 0.401193
505 3 0.169604 0.658105 0.901193
506 3 0.669604 0.658105 0.901193
507 3 0.330396 0.341895 0.401193
508 3 0.830396 0.341895 0.401193
509 3 0.419604 0.341895 0.901193
510 3 0.919604 0.341895 0.901193
511 3 0.0803965 0.658105 0.401193
512 3 0.580396 0.658105 0.401193
513 4 0.136614 0.969377 0.247928
514 4 0.636614 0.969377 0.247928
515 4 0.363386 0.0306233 0.747928
516 4 0.863386 0.0306233 0.747928
517 4 0.386614 0.0306233 0.247928
518 4 0.886614 0.0306233 0.247928
519 4 0.113386 0.969377 0.747928
520 4 0.613386 0.969377 0.747928
521 4 0.136614 0.469377 0.247928
522 4 0.636614 0.469377 0.247928
523 4 0.363386 0.530623 0.747928
524 4 0.863386 0.530623 0.747928
525 4 0.386614 0.530623 0.247928
526 4 0.886614 0.530623 0.247928
527 4 0.113386 0.469377 0.747928
528 4 0.613386 0.469377 0.747928
529 4 0.103749 0.919459 0.181518
530 4 0.603749 0.919459 0.181518
531 4 0.396251 0.0805412 0.681518
532 4 0.896251 0.0805411 0.681518
533 4 0.353749 0.0805412 0.181518
534 4 0.853749 0.0805411 0.181518
535 4 0.146251 0.919459 0.681518
536 4 0.646251 0.919459 0.681518
537 4 0.103749 0.419459 0.181518
538 4 0.603749 0.419459 0.181518
539 4 0.396251 0.580541 0.681518
540 4 0.896251 0.580541 0.681518
541 4 0.353749 0.580541 0.181518
542 4 0.853749 0.580541 0.181518
543 4 0.146251 0.419459 0.681518
544 4 0.646251 0.419459 0.681518
545 4 0.0882918 0.0481255 0.230854
546 4 0.588292 0.0481255 0.230854
547 4 0.411708 0.951875 0.730854
548 4 0.911708 0.951875 0.730854
549 4 0.338292 0.951875 0.230854
550 4 0.838292 0.951875 0.230854
551 4 0.161708 0.0481255 0.730854
552 4 0.661708 0.0481255 0.730854
553 4 0.0882919 0.548125 0.230854
554 4 0.588292 0.548125 0.230854
555 4 0.411708 0.451874 0.730854
556 4 0.911708 0.451874 0.730854
557 4 0.338292 0.451875 0.230854
558 4 0.838292 0.451875 0.230854
559 4 0.161708 0.548125 0.730854
560 4 0.661708 0.548126 0.730854
561 4 0.251858 0.099373 0.107895
562 4 0.751858 0.099373 0.107895
563 4 0.248142 0.900627 0.607895
564 4 0.748142 0.900627 0.607895
565 4 0.501858 0.900627 0.107895
566 4 0.00185837 0.900627 0.107895
567 4 0.998142 0.099373 0.607895
568 4 0.498142 0.099373 0.607895
569 4 0.251858 0.599373 0.107895
570 4 0.751858 0.599373 0.107895
571 4 0.248142 0.400627 0.607895
572 4 0.748142 0.400627 0.607895
573 4 0.501858 0.400627 0.107895
574 4 0.00185834 0.400627 0.107895
575 4 0.998142 0.599373 0.607895
576 4 0.498142 0.599373 0.607895
577 4 0.132839 0.29106 0.0487318
578 4 0.632839 0.29106 0.0487318
579 4 0.367161 0.70894 0.548732
580 4 0.867161 0.70894 0.548732
581 4 0.382839 0.70894 0.0487318
582 4 0.882839 0.70894 0.0487318
583 4 0.117161 0.29106 0.548732
584 4 0.617161 0.29106 0.548732
585 4 0.132839 0.791059 0.048732
586 4 0.632839 0.791059 0.048732
587 4 0.367161 0.208941 0.548732
588 4 0.867161 0.208941 0.548732
589 4 0.382839 0.208941 0.048732
590 4 0.882839 0.208941 0.048732
591 4 0.117161 0.791059 0.548732
592 4 0.617161 0.791059 0.548732
593 4 0.248235 0.2833 0.752929
594 4 0.748235 0.2833 0.752929
595 4 0.251765 0.7167 0.252929
596 4 0.751765 0.7167 0.252929
597 4 0.498235 0.7167 0.752929
598 4 0.998235 0.7167 0.752929
599 4 0.00176546 0.2833 0.252929
600 4 0.501765 0.2833 0.252929
601 4 0.248235 0.7833 0.752929
602 4 0.748235 0.7833 0.752929
603 4 0.251765 0.2167 0.252929
604 4 0.751765 0.2167 0.252929
605 4 0.498235 0.2167 0.752929
606 4 0.998235 0.2167 0.752929
607 4 0.00176546 0.7833 0.252929
608 4 0.501765 0.7833 0.252929
609 4 0.202743 0.198227 0.781664
610 4 0.702743 0.198227 0.781664
611 4 0.297257 0.801773 0.281664
612 4 0.797257 0.801773 0.281664
613 4 0.452743 0.801773 0.781664
614 4 0.952743 0.801773 0.781664
615 4 0.0472571 0.198227 0.281664
616 4 0.547257 0.198227 0.281664
617 4 0.202743 0.698227 0.781664
618 4 0.702743 0.698227 0.781664
619 4 0.297257 0.301773 0.281664
620 4 0.797257 0.301773 0.281664
621 4 0.452743 0.301773 0.781664
622 4 0.952743 0.301773 0.781664
623 4 0.0472571 0.698227 0.281664
624 4 0.547257 0.698227 0.281664
625 4 0.214851 0.320705 0.826678
626 4 0.714851 0.320705 0.826678
627 4 0.285149 0.679295 0.326678
628 4 0.785149 0.679295 0.326678
629 4 0.464851 0.679295 0.826678
630 4 0.964851 0.679295 0.826678
631 4 0.0351493 0.320705 0.326678
632 4 0.535149 0.320705 0.326678
633 4 0.214851 0.820705 0.826678
634 4 0.714851 0.820705 0.826678
635 4 0.285149 0.179295 0.326678
636 4 0.785149 0.179295 0.326678
637 4 0.464851 0.179295 0.826678
638 4 0.964851 0.179295 0.826678
639 4 0.0351493 0.820705 0.326678
640 4 0.535149 0.820705 0.326678
641 4 0.373658 0.145954 0.893686
642 4 0.873658 0.145954 0.893686
643 4 0.126342 0.854046 0.393686
644 4 0.626342 0.854046 0.393686
645 4 0.123658 0.854046 0.893686
646 4 0.623658 0.854046 0.893686
647 4 0.376342 0.145954 0.393686
648 4 0.876342 0.145954 0.393686
649 4 0.373658 0.645954 0.893686
650 4 0.873658 0.645954 0.893686
651 4 0.126342 0.354046 0.393686
652 4 0.626342 0.354046 0.393686
653 4 0.123658 0.354046 0.893686
654 4 0.623658 0.354046 0.893686
655 4 0.376342 0.645954 0.393686
656 4 0.876342 0.645954 0.393686
657 4 0.253915 0.952319 0.945654
658 4 0.753915 0.952319 0.945654
659 4 0.246085 0.0476812 0.445654
660 4 0.746085 0.0476812 0.445654
661 4 0.00391507 0.0476812 0.945654
662 4 0.503915 0.0476812 0.945654
663 4 0.496085 0.952319 0.445654
664 4 0.996085 0.952319 0.445654
665 4 0.253915 0.452319 0.945654
666 4 0.753915 0.452319 0.945654
667 4 0.246085 0.547681 0.445654
668 4 0.746085 0.547681 0.445654
669 4 0.00391507 0.547681 0.945654
670 4 0.503915 0.547681 0.945654
671 4 0.496085 0.452319 0.445654
672 4 0.996085 0.452319 0.445654
ITEM: TIMESTEP
1000
ITEM: NUMBER OF ATOMS
672
ITEM: BOX BOUNDS xy xz yz pp pp pp
-4.9557279520688885e-01 3.0499516592637313e+01 -7.0216109248971884e-02
1.1252303894559612e-02 1.1933915608185465e+01 9.2159555679444768e-02
-9.4651152783068504e-01 2.0963511726230688e+01 -2.0883237022002316e-01
ITEM: ATOMS id type xs ys zs
1 1 0.140059 0.0742301 0.163463
2 1 0.656696 0.0593992 0.14418
3 1 0.350289 0.948633 0.650503
4 1 0.863127 0.930768 0.653974
5 1 0.396006 0.912542 0.159984
6 1 0.901675 0.900552 0.153522
7 1 0.100655 0.104903 0.64979
8 1 0.604173 0.0939821 0.659165
9 1 0.139515 0.546253 0.167329
10 1 0.651319 0.559802 0.157403
11 1 0.351641 0.428223 0.660765
12 1 0.849908 0.411457 0.657098
13 1 0.386503 0.425053 0.163111
14 1 0.900563 0.412478 0.163387
15 1 0.101491 0.610724 0.66921
16 1 0.605398 0.563721 0.660934
17 1 0.186751 0.0505912 0.156186
18 1 0.703186 0.0619086 0.146765
19 1 0.303098 0.951561 0.652657
20 1 0.819282 0.971045 0.643977
21 1 0.440721 0.940017 0.146915
22 1 0.946595 0.933695 0.149638
23 1 0.0554698 0.0843356 0.648449
24 1 0.559423 0.0769906 0.649355
25 1 0.184749 0.534358 0.158323
26 1 0.696616 0.537942 0.152187
27 1 0.30636 0.449795 0.654168
28 1 0.804817 0.435086 0.648462
29 1 0.432693 0.439613 0.159363
30 1 0.946744 0.44044 0.161589
31 1 0.0574776 0.573577 0.661795
32 1 0.559956 0.554426 0.654487
33 1 0.207806 0.113576 0.108371
34 1 0.72512 0.124808 0.0997087
35 1 0.28008 0.874408 0.616553
36 1 0.793774 0.916323 0.595801
37 1 0.461345 0.88169 0.0966909
38 1 0.971925 0.864309 0.109182
39 1 0.0287427 0.148884 0.609895
40 1 0.539749 0.145266 0.604055
41 1 0.20452 0.600414 0.111856
42 1 0.718798 0.597268 0.104484
43 1 0.283606 0.377844 0.611343
44 1 0.784669 0.380908 0.597824
45 1 0.454295 0.379573 0.110677
46 1 0.971871 0.385013 0.114707
47 1 0.0333709 0.636468 0.617999
48 1 0.538024 0.619663 0.610326
49 1 0.188816 0.201361 0.072187
50 1 0.703803 0.203643 0.0602067
51 1 0.301184 0.793482 0.574684
52 1 0.806868 0.81407 0.567793
53 1 0.439194 0.79471 0.0614012
54 1 0.955068 0.762924 0.078546
55 1 0.0474924 0.223203 0.563585
56 1 0.559722 0.228178 0.567579
57 1 0.183195 0.688636 0.0801009
58 1 0.698411 0.678009 0.0661833
59 1 0.302633 0.286817 0.578842
60 1 0.804432 0.301489 0.55342
61 1 0.433491 0.295411 0.0730859
62 1 0.954283 0.302534 0.072248
63 1 0.0500317 0.729615 0.584989
64 1 0.560684 0.70243 0.573148
65 1 0.145108 0.226821 0.0870947
66 1 0.658648 0.214685 0.0687756
67 1 0.346408 0.786883 0.578171
68 1 0.848073 0.771601 0.586219
69 1 0.396173 0.769039 0.0797017
70 1 0.914377 0.723291 0.0981723
71 1 0.0914093 0.24352 0.568607
72 1 0.605985 0.235757 0.577757
73 1 0.138116 0.702146 0.0929826
74 1 0.654912 0.706474 0.0799462
75 1 0.346777 0.262762 0.592377
76 1 0.849356 0.284543 0.561656
77 1 0.387346 0.278396 0.0802287
78 1 0.909251 0.275593 0.0774031
79 1 0.0943064 0.757575 0.596003
80 1 0.605564 0.719144 0.58657
81 1 0.118759 0.156291 0.127885
82 1 0.633764 0.146747 0.110545
83 1 0.372649 0.871122 0.611218
84 1 0.879632 0.836747 0.619935
85 1 0.371299 0.831735 0.125267
86 1 0.88566 0.790591 0.135973
87 1 0.119503 0.19806 0.616793
88 1 0.629445 0.177179 0.623136
89 1 0.115618 0.63259 0.134576
90 1 0.629928 0.645917 0.126077
91 1 0.373011 0.337177 0.629557
92 1 0.87108 0.333055 0.61445
93 1 0.363674 0.344941 0.123891
94 1 0.88125 0.33155 0.122394
95 1 0.123709 0.696294 0.633843
96 1 0.629365 0.647534 0.627794
97 1 0.115496 0.00172114 0.213237
98 1 0.632613 0.970099 0.18362
99 1 0.37695 0.0268904 0.691728
100 1 0.887254 0.990661 0.707322
101 1 0.369813 0.975913 0.2099
102 1 0.873148 0.992625 0.184797
103 1 0.12956 0.0327619 0.691289
104 1 0.627283 0.01819 0.706143
105 1 0.117984 0.476235 0.219233
106 1 0.622924 0.492281 0.203176
107 1 0.37904 0.509786 0.702114
108 1 0.876758 0.467563 0.707828
109 1 0.359608 0.49896 0.20829
110 1 0.871002 0.464427 0.213618
111 1 0.130276 0.55876 0.719451
112 1 0.630189 0.498595 0.71258
113 1 0.275298 0.173453 0.841086
114 1 0.787803 0.145152 0.84191
115 1 0.212682 0.838039 0.348996
116 1 0.733834 0.804173 0.336247
117 1 0.0272869 0.850176 0.829009
118 1 0.520017 0.8374 0.834934
119 1 0.47958 0.156475 0.335495
120 1 0.965841 0.149637 0.338198
121 1 0.278532 0.687596 0.83198
122 1 0.774668 0.665383 0.840527
123 1 0.224424 0.329297 0.350296
124 1 0.727585 0.340257 0.345617
125 1 0.0371973 0.35801 0.828893
126 1 0.525678 0.332042 0.849442
127 1 0.468078 0.657655 0.356054
128 1 0.97153 0.665446 0.342084
129 1 0.320178 0.201437 0.853029
130 1 0.83397 0.161228 0.847673
131 1 0.166247 0.81823 0.353928
132 1 0.686891 0.790774 0.342021
133 1 0.0711661 0.834947 0.844996
134 1 0.566017 0.827369 0.839644
135 1 0.43213 0.167938 0.335574
136 1 0.920637 0.168506 0.347139
137 1 0.324735 0.699902 0.839157
138 1 0.821796 0.680114 0.842018
139 1 0.180134 0.302079 0.362765
140 1 0.682923 0.321175 0.351189
141 1 0.0837109 0.345965 0.836056
142 1 0.570358 0.295867 0.856105
143 1 0.421214 0.661911 0.357946
144 1 0.925027 0.671431 0.343739
145 1 0.337609 0.13337 0.901784
146 1 0.849631 0.0824788 0.890503
147 1 0.145746 0.891145 0.397657
148 1 0.667263 0.871111 0.381877
149 1 0.0892223 0.907875 0.891734
150 1 0.586625 0.910074 0.878266
151 1 0.407391 0.0847784 0.367576
152 1 0.900963 0.101173 0.394005
153 1 0.344319 0.62944 0.882483
154 1 0.847522 0.609091 0.881082
155 1 0.161266 0.374371 0.410849
156 1 0.661236 0.397545 0.392648
157 1 0.101757 0.41349 0.883093
158 1 0.595528 0.345087 0.902843
159 1 0.40095 0.577765 0.392639
160 1 0.902895 0.607689 0.38859
161 1 0.314897 0.0435114 0.931635
162 1 0.823209 0.014338 0.930548
163 1 0.170578 0.966611 0.436068
164 1 0.689155 0.948034 0.42226
165 1 0.0628929 0.986912 0.923663
166 1 0.56381 0.976776 0.923208
167 1 0.428454 0.00911315 0.409081
168 1 0.924519 0.0147203 0.4252
169 1 0.319078 0.557656 0.922393
170 1 0.823968 0.535799 0.92234
171 1 0.18533 0.465322 0.439258
172 1 0.685127 0.479292 0.427823
173 1 0.0765532 0.491977 0.919308
174 1 0.579086 0.438426 0.940244
175 1 0.42392 0.493101 0.427341
176 1 0.926847 0.523761 0.422595
177 1 0.273563 0.0106402 0.907974
178 1 0.778226 0.00964972 0.918113
179 1 0.215817 0.991146 0.425729
180 1 0.735479 0.959489 0.41251
181 1 0.0196717 0.00896583 0.902611
182 1 0.517908 0.989245 0.913979
183 1 0.474667 0.998266 0.405006
184 1 0.968521 0.983752 0.409303
185 1 0.272594 0.548811 0.912404
186 1 0.779917 0.501934 0.906865
187 1 0.229658 0.491062 0.421501
188 1 0.729469 0.503901 0.409129
189 1 0.0318599 0.508431 0.902231
190 1 0.536266 0.481874 0.926259
191 1 0.46948 0.49199 0.419575
192 1 0.972781 0.507343 0.410846
193 1 0.251125 0.0765207 0.86382
194 1 0.757283 0.0760268 0.874084
195 1 0.238479 0.919074 0.385047
196 1 0.756816 0.887698 0.37046
197 1 0.495662 0.92256 0.868742
198 1 0.000493994 0.933183 0.859208
199 1 0.989847 0.0618176 0.370144
200 1 0.502231 0.0678722 0.366633
201 1 0.250352 0.615327 0.868346
202 1 0.752897 0.574289 0.870101
203 1 0.250401 0.417712 0.378019
204 1 0.75278 0.432409 0.370588
205 1 0.507699 0.431493 0.882526
206 1 0.0099848 0.438293 0.858269
207 1 0.996765 0.58945 0.378058
208 1 0.493395 0.576143 0.385747
209 1 0.249096 0.254393 0.798669
210 1 0.766575 0.232765 0.798961
211 1 0.243733 0.771232 0.30431
212 1 0.760272 0.740463 0.286989
213 1 0.493101 0.763644 0.790189
214 1 0.0057104 0.768006 0.780792
215 1 0.994519 0.220731 0.295546
216 1 0.508762 0.237873 0.298299
217 1 0.257377 0.763196 0.782729
218 1 0.746873 0.755219 0.807017
219 1 0.245754 0.261647 0.29831
220 1 0.750617 0.255982 0.30119
221 1 0.495165 0.278464 0.802108
222 1 0.0113322 0.279147 0.786232
223 1 0.995594 0.742294 0.297169
224 1 0.496416 0.745992 0.322181