LAMMPS data file via write_data, version 15 Apr 2020, timestep = 80000

672 atoms
4 atom types

-5.1314342301480309e-01 3.0495143774015396e+01 xlo xhi
5.4729266514113117e-01 1.1606707617158474e+01 ylo yhi
-1.2471620250273521e+00 2.1264162223427288e+01 zlo zhi
3.0336719973557408e-04 -1.5115807396456252e-01 6.9368387409418780e-02 xy xz yz

Masses

1 12.0107
2 14.0067
3 15.9994
4 1.00794

Atoms # full

1 1 1 1.8042800063916297e-02 4.0032438202942933e+00 1.5463646895247862e+00 2.4625726730073674e+00 0 0 0
2 1 1 2.2952703108951110e-02 1.9554673363785998e+01 1.7253980944836191e+00 2.2374272340907551e+00 0 0 0
3 1 1 2.2736875832749710e-02 1.0566510589541043e+01 1.0816974122696255e+01 1.3935186643909137e+01 0 0 0
4 1 1 1.6592078260470544e-02 2.6159131037461378e+01 1.0913986140676737e+01 1.3432343542596161e+01 0 0 0
5 1 1 2.2221203610693050e-02 1.1493330771528074e+01 1.0624294668361525e+01 2.1623729100106703e+00 0 0 0
6 1 1 2.1875870943888067e-02 2.6962330544278377e+01 1.0548249615013532e+01 2.1423055538141558e+00 0 0 0
7 1 1 1.9726957823582816e-02 2.8336524784046162e+00 9.4365791324814996e-01 1.3281663509908894e+01 0 0 0
8 1 1 1.4658943930486191e-02 1.8017467961122694e+01 1.7152376402198577e+00 1.3481715769068721e+01 0 0 0
9 1 1 2.1018365893050579e-02 3.6548562512513150e+00 6.9943581519097870e+00 2.3793682858141949e+00 0 0 0
10 1 1 2.0231111640477591e-02 1.9318664033811455e+01 7.1590102759019985e+00 2.3766720059189730e+00 0 0 0
11 1 1 2.2351380250935329e-02 1.0570086701651284e+01 4.9889927587831835e+00 1.3539565708681842e+01 0 0 0
12 1 1 2.7560654239203487e-02 2.6040799047464045e+01 5.2221932242029885e+00 1.3688976132763678e+01 0 0 0
13 1 1 2.6350849326807445e-02 1.1610662097039263e+01 5.0975842896526240e+00 2.3590693741165008e+00 0 0 0
14 1 1 2.5073415968957541e-02 2.7084136531354403e+01 5.3607022914872031e+00 2.0824107564066199e+00 0 0 0
15 1 1 2.0595599795035308e-02 2.7059624007639052e+00 6.8377091371646044e+00 1.3617782264927797e+01 0 0 0
16 1 1 2.5788227716623938e-02 1.8318065111662236e+01 7.2503263937978852e+00 1.3886398127425151e+01 0 0 0
17 1 1 2.8941899549803311e-02 5.3839496586547577e+00 1.2214971637642797e+00 2.2333973595223560e+00 0 0 0
18 1 1 2.6275713685543881e-02 2.0856297543554884e+01 1.1422526826310930e+00 1.9816212136785842e+00 0 0 0
19 1 1 2.9072849566051415e-02 9.2208921252227327e+00 1.1329359456507621e+01 1.3712473670744609e+01 0 0 0
20 1 1 2.9763190092618276e-02 2.4751974829882407e+01 1.1179488781600533e+01 1.3370823614747625e+01 0 0 0
21 1 1 2.6629784229460898e-02 1.2849514070873559e+01 1.1050566440806925e+01 2.0418601576469402e+00 0 0 0
22 1 1 3.6798578160475909e-02 2.8376429593043405e+01 1.0826044262583718e+01 2.0171566640818912e+00 0 0 0
23 1 1 3.2604119229550886e-02 1.4603530970626406e+00 1.1645305564308646e+01 1.3076998722117589e+01 0 -1 0
24 1 1 2.7790478649461218e-02 1.6645490911311420e+01 1.4538072536889621e+00 1.3358551164985071e+01 0 0 0
25 1 1 2.6779016405789186e-02 5.0664289728714653e+00 6.7043592058147414e+00 2.2229847001276384e+00 0 0 0
26 1 1 2.4229955940422650e-02 2.0700385258934496e+01 6.9206948730486699e+00 2.2417705409430790e+00 0 0 0
27 1 1 3.3599446820894455e-02 9.2040387360216140e+00 5.4029838395682006e+00 1.3464457778088757e+01 0 0 0
28 1 1 2.8628572381343913e-02 2.4688987371579273e+01 5.7316225211739376e+00 1.3683536312908773e+01 0 0 0
29 1 1 2.8751868974021419e-02 1.2938248046789120e+01 5.5747491784314693e+00 2.0323559811350487e+00 0 0 0
30 1 1 3.1162926649221781e-02 2.8496019746729992e+01 5.6531871588600664e+00 2.0074260827604746e+00 0 0 0
31 1 1 3.0188771708996070e-02 1.4102652972149616e+00 6.4166786025884122e+00 1.3223187990746522e+01 0 0 0
32 1 1 2.7104786495250433e-02 1.6914174360760793e+01 6.9282961842368680e+00 1.3702045346180068e+01 0 0 0
33 1 1 1.7186510296902761e-02 6.0896256599090242e+00 2.0068291562596183e+00 1.2573707745986917e+00 0 0 0
34 1 1 1.9948843644962092e-02 2.1533702955223092e+01 1.6980556686799135e+00 8.6909214068923468e-01 0 0 0
35 1 1 8.3964584427595364e-03 8.4524087080552803e+00 1.0541379748645316e+01 1.2754080914749391e+01 0 0 0
36 1 1 1.3495068311617755e-02 2.3941990004770425e+01 1.0373533521693872e+01 1.2512921113735361e+01 0 0 0
37 1 1 1.6405476512336294e-02 1.3684257788157362e+01 1.0221957424421390e+01 1.2223552095780068e+00 0 0 0
38 1 1 1.8127934978984260e-02 2.9126399914573032e+01 1.0230627039797689e+01 9.3696939252278089e-01 0 0 0
39 1 1 1.8869512243477930e-02 7.9515655415357578e-01 1.4449160248146171e+00 1.2155849074567200e+01 0 0 0
40 1 1 1.9706260519593972e-02 1.6011701289292443e+01 2.1412013299231152e+00 1.2248891549685323e+01 0 0 0
41 1 1 2.0215547681973967e-02 5.7476415722169776e+00 7.4381403814408182e+00 1.1928627603876731e+00 0 0 0
42 1 1 1.4453971019557033e-02 2.1450934557089262e+01 7.6939245209956253e+00 1.2809348604656439e+00 0 0 0
43 1 1 2.3763706597782160e-02 8.4700152662239674e+00 4.8549523051062522e+00 1.2360316217076267e+01 0 0 0
44 1 1 2.2230824756803772e-02 2.3809396030762610e+01 5.2172584098837440e+00 1.2720779467291123e+01 0 0 0
45 1 1 2.5439316118725703e-02 1.3519285890224328e+01 5.0981288349166309e+00 8.2878127157537351e-01 0 0 0
46 1 1 1.8010248140915938e-02 2.9238613174669116e+01 4.8929624666117961e+00 1.0971399299670193e+00 0 0 0
47 1 1 1.4812932906509431e-02 8.4723010241751895e-01 7.0503124728392601e+00 1.2051460492724596e+01 0 0 0
48 1 1 1.9972898413996291e-02 1.6225716282307932e+01 7.5845068489856198e+00 1.2659364699899804e+01 0 0 0
49 1 1 4.2432689397685686e-02 5.4178928442500371e+00 3.0207271019904089e+00 4.7905421760446054e-01 0 0 0
50 1 1 4.4128106806645168e-02 2.1049453460560777e+01 2.8517092818324130e+00 1.5104607316446428e-01 0 0 0
51 1 1 3.7255767897561708e-02 9.0063406100759344e+00 9.4609784683124154e+00 1.2002483802063908e+01 0 0 0
52 1 1 3.4519279304205959e-02 2.4501340632971175e+01 9.3645114082512926e+00 1.1672205259368470e+01 0 0 0
53 1 1 3.8838478815842396e-02 1.3110636464205447e+01 9.2199690627599473e+00 3.7977900955496402e-01 0 0 0
54 1 1 4.0005452077962217e-02 2.8528591505053274e+01 9.1295895626223817e+00 2.2393285708672428e-01 0 0 0
55 1 1 4.4481368436883342e-02 1.3940510828847268e+00 2.4873828735895360e+00 1.1387917958332563e+01 0 0 0
56 1 1 4.3717363584562859e-02 1.6723272956804411e+01 2.9985639823573056e+00 1.1397455598550884e+01 0 0 0
57 1 1 4.6211961825601638e-02 5.1025152683426889e+00 8.2797922121624801e+00 2.3989313139049639e-01 0 0 0
58 1 1 3.9738610950314862e-02 2.0786963815212513e+01 8.4828314113905510e+00 3.0858110594937549e-01 0 0 0
59 1 1 4.1892767214665103e-02 9.1259395199059927e+00 3.9105537122729870e+00 1.1508490934783428e+01 0 0 0
60 1 1 4.5176080692556186e-02 2.4257544706920399e+01 4.1836066130869778e+00 1.1813078358438116e+01 0 0 0
61 1 1 4.4267940696815222e-02 1.2810489933068478e+01 4.1289394358970988e+00 7.6261749315783556e-02 0 0 0
62 1 1 4.1019790244778379e-02 2.8712946577584116e+01 3.7992556428297131e+00 3.6237039346576028e-01 0 0 0
63 1 1 4.2280007807193695e-02 1.5246373445960892e+00 8.1056270945165068e+00 1.1376482691757612e+01 0 0 0
64 1 1 4.8439500282554865e-02 1.6830856528879117e+01 8.6356104450808004e+00 1.1878241316793831e+01 0 0 0
65 1 1 1.4163227331633929e-02 3.9839043868681401e+00 3.1934640478881544e+00 6.7898557917336899e-01 0 0 0
66 1 1 2.3488787774714533e-02 1.9769348099096533e+01 3.3115462631380832e+00 4.4493074564905055e-01 0 0 0
67 1 1 1.1253570719696338e-02 1.0320084684795336e+01 9.0984048346039259e+00 1.2245371945918356e+01 0 0 0
68 1 1 1.7348406144483179e-02 2.5938261982753879e+01 9.3041370767398597e+00 1.1632578672044611e+01 0 0 0
69 1 1 1.2939986831481041e-02 1.1733058099533618e+01 8.8268302560350733e+00 6.0008578787481870e-01 0 0 0
70 1 1 1.1468167928696819e-02 2.7174244269737933e+01 8.8036322602275341e+00 5.3202584094989214e-01 0 0 0
71 1 1 1.9227950514567702e-02 2.7252977360827950e+00 2.8523183495983071e+00 1.1719209168325419e+01 0 0 0
72 1 1 1.7348331403644349e-02 1.8117712407468066e+01 3.2914901939228125e+00 1.1706856365757346e+01 0 0 0
73 1 1 1.7522479247343924e-02 3.7052031303352035e+00 8.4306051843729488e+00 3.7971818010423330e-01 0 0 0
74 1 1 1.3036512454234088e-02 1.9415433600632340e+01 8.7980284308166112e+00 5.4015260727899861e-01 0 0 0
75 1 1 1.3851775429273801e-02 1.0478720706821191e+01 3.5669258937900392e+00 1.1694092830299814e+01 0 0 0
76 1 1 1.4053173248808497e-02 2.5551682675624658e+01 3.6351024024858445e+00 1.1948156625690421e+01 0 0 0
77 1 1 2.3958462271755163e-02 1.1523197581540661e+01 3.6578747929065836e+00 4.6810204856561133e-01 0 0 0
78 1 1 2.1425317315677806e-02 2.7297852401181292e+01 3.5092202636916880e+00 5.1012159373330190e-01 0 0 0
79 1 1 1.8566318225554559e-02 2.8672593583789019e+00 8.3621787337896887e+00 1.1788521251075391e+01 0 0 0
80 1 1 9.3057593490146161e-03 1.8148078729880666e+01 9.0248459785582256e+00 1.2242487473729691e+01 0 0 0
81 1 1 3.2995519149598314e-02 3.2594689961321581e+00 2.4855845578375275e+00 1.6964355289019815e+00 0 0 0
82 1 1 4.1200068979038759e-02 1.8971929475176925e+01 2.7532905180118039e+00 1.4958833070751392e+00 0 0 0
83 1 1 3.1563372679112786e-02 1.1219119133403595e+01 9.8368731908349432e+00 1.3139930542215483e+01 0 0 0
84 1 1 3.8261709627966288e-02 2.6782642313392781e+01 9.9350742794117082e+00 1.2576659329413523e+01 0 0 0
85 1 1 3.2841135085236568e-02 1.0894411973498837e+01 9.4990501088154744e+00 1.5140977763486578e+00 0 0 0
86 1 1 3.2273129466221573e-02 2.6310001837235816e+01 9.4960870385306215e+00 1.4348534859686435e+00 0 0 0
87 1 1 3.7006572668274687e-02 3.5103223294659509e+00 2.0998140060841486e+00 1.2670193081190558e+01 0 0 0
88 1 1 3.5746857487665179e-02 1.8847809480863560e+01 2.6435617900530000e+00 1.2721244967812931e+01 0 0 0
89 1 1 3.3875946092215600e-02 2.9618256523633013e+00 7.8312274358786951e+00 1.4466035664288328e+00 0 0 0
90 1 1 3.4221054002708348e-02 1.8630671055475172e+01 8.1354146047882558e+00 1.5278469322787558e+00 0 0 0
91 1 1 3.3719745900751191e-02 1.1331195137859824e+01 4.1684000202431672e+00 1.2701476835462060e+01 0 0 0
92 1 1 3.5754214839775131e-02 2.6517947406204097e+01 4.1487539286571966e+00 1.2852617591948800e+01 0 0 0
93 1 1 4.0264697468648754e-02 1.0973037144520269e+01 4.0237163782079248e+00 1.7457291391298271e+00 0 0 0
94 1 1 4.0044013662158491e-02 2.6460846949238753e+01 4.2692639971649431e+00 1.3831270100933870e+00 0 0 0
95 1 1 2.7632299119584484e-02 3.5196437259524824e+00 7.7794062786798266e+00 1.2910070284297161e+01 0 0 0
96 1 1 3.1145764869785767e-02 1.8982025768404903e+01 8.2370259396375616e+00 1.3112628709541401e+01 0 0 0
97 1 1 -5.9941951297098048e-02 3.3236696695165895e+00 7.7363197727384603e-01 3.6141915676344096e+00 0 1 0
98 1 1 -5.8396160588883417e-02 1.8744696458368018e+01 1.0289629735266155e+00 3.3579090572734200e+00 0 1 0
99 1 1 -5.6992489018734813e-02 1.1520841481484698e+01 1.1554379211873485e+01 1.4909576148371999e+01 0 -1 0
100 1 1 -5.9190337671734698e-02 2.7111682986473095e+01 1.1612442045222121e+01 1.4456195725338382e+01 0 -1 0
101 1 1 -6.4423704535406759e-02 1.0554922005284990e+01 1.1294180675988123e+01 3.1996138984830820e+00 0 -1 0
102 1 1 -6.2622043515651565e-02 2.6214853712782521e+01 1.1351943502402218e+01 3.2370260729454765e+00 0 -1 0
103 1 1 -6.4430286212330851e-02 3.5280707969371181e+00 1.1379280286109683e+01 1.4511802320664668e+01 0 0 0
104 1 1 -6.2714814111189024e-02 1.8786502076422408e+01 1.0264287839461517e+00 1.4618847715409192e+01 0 1 0
105 1 1 -5.7094558894318713e-02 2.9234157326905379e+00 6.1012064770628998e+00 3.4247155318642806e+00 0 0 0
106 1 1 -5.1921753927836711e-02 1.8607603549610033e+01 6.4870015537207335e+00 3.5634635158849370e+00 0 0 0
107 1 1 -6.5365185630956835e-02 1.1368021830957536e+01 5.6026977826462812e+00 1.4724459337058429e+01 0 0 0
108 1 1 -5.6289397920474077e-02 2.7047994831430298e+01 5.8704548840172945e+00 1.4670678037600743e+01 0 0 0
109 1 1 -5.8512351545090144e-02 1.0952443586771681e+01 5.8916414914328596e+00 3.5150231047299574e+00 0 0 0
110 1 1 -6.4545311821121387e-02 2.6290341959564842e+01 6.0409298489076511e+00 3.2223769768822752e+00 0 0 0
111 1 1 -5.6765292929162658e-02 3.3371826670922591e+00 6.2160624604000771e+00 1.4882050147162660e+01 0 0 0
112 1 1 -5.5701743654236788e-02 1.9129677473377864e+01 6.5704957019040853e+00 1.5044466494894246e+01 0 0 0
113 1 1 2.2310475048717523e-02 7.5491405055221135e+00 2.4264293026955372e+00 1.8080193697588086e+01 0 0 0
114 1 1 2.0013945708915879e-02 2.3104700021840571e+01 2.3305823622232755e+00 1.7608070054203765e+01 0 0 0
115 1 1 1.6334446661798875e-02 6.3709374913750265e+00 9.8582069356867450e+00 6.3433373810596949e+00 0 0 0
116 1 1 1.9941454792089953e-02 2.2004428874929616e+01 9.6852464915270815e+00 6.4752356921643779e+00 0 0 0
117 1 1 1.6567035053841373e-02 2.7250991324653584e-02 9.7455197610355420e+00 1.7966504300217558e+01 0 0 0
118 1 1 2.4413222899436839e-02 1.5599103832644079e+01 1.0534876349913919e+01 1.7644976568881049e+01 0 0 0
119 1 1 2.6191350998048684e-02 1.4402621570835150e+01 1.8623583461183051e+00 6.7306616823596634e+00 0 0 0
120 1 1 2.6109148198250661e-02 2.9661181360400153e+01 2.1933270056864940e+00 6.1657830743364128e+00 0 0 0
121 1 1 2.1773640777214623e-02 7.7867041510715751e+00 8.0017983057004365e+00 1.7404508893172888e+01 0 0 0
122 1 1 2.1880414061519939e-02 2.3542155710896520e+01 8.2310182576877455e+00 1.7803300428036046e+01 0 0 0
123 1 1 1.9548475020291691e-02 6.3925455037529506e+00 4.3576713307467489e+00 6.3328123655957649e+00 0 0 0
124 1 1 1.5700742797049791e-02 2.2249314689763892e+01 4.2664343818062100e+00 6.1543181513887388e+00 0 0 0
125 1 1 2.0750854351096269e-02 -2.4102637522005477e-04 4.3050168604584123e+00 1.7592415559714901e+01 0 0 0
126 1 1 1.8672859034915765e-02 1.5459159351589875e+01 4.4255407271258047e+00 1.7578912553337858e+01 0 0 0
127 1 1 1.7042555093286130e-02 1.4370130911794917e+01 7.9688420005749450e+00 6.2989429084684989e+00 0 0 0
128 1 1 2.0304624698785762e-02 2.9613537767561496e+01 7.7234386792466134e+00 6.5488808665565470e+00 0 0 0
129 1 1 3.9739253270615775e-02 9.0057930742027672e+00 2.5786242205776486e+00 1.8066161962961189e+01 0 0 0
130 1 1 2.9843397010943604e-02 2.4494515666286222e+01 2.5817183250135374e+00 1.7715379019038629e+01 0 0 0
131 1 1 2.5762041674198457e-02 4.9673128159360838e+00 9.5565034657204073e+00 6.5564615736399885e+00 0 0 0
132 1 1 3.5962329768519291e-02 2.0639867694598131e+01 9.2788576398957012e+00 6.8054796938149522e+00 0 0 0
133 1 1 3.0841597136396667e-02 1.4064247940038674e+00 9.4610425752706853e+00 1.8061785489171072e+01 0 0 0
134 1 1 3.8913223592111086e-02 1.6959853158582245e+01 1.0163165978878748e+01 1.7876207829828111e+01 0 0 0
135 1 1 4.1318963401304587e-02 1.3055269885251223e+01 2.3475136215054304e+00 6.9080151353769566e+00 0 0 0
136 1 1 2.8600862168093821e-02 2.8344064967401312e+01 2.6741594239283506e+00 6.4651074974373479e+00 0 0 0
137 1 1 3.3315725519781313e-02 9.1554645627040472e+00 8.3088228858358235e+00 1.7659952041044797e+01 0 0 0
138 1 1 3.5101707339745700e-02 2.4943411968993775e+01 8.4773236580967009e+00 1.7995013427133856e+01 0 0 0
139 1 1 3.1083062088312196e-02 4.9953970278228139e+00 4.1484813781922272e+00 6.6018095391502492e+00 0 0 0
140 1 1 3.1712098481156810e-02 2.0825263937064694e+01 4.0367281539594444e+00 6.3833781098447728e+00 0 0 0
141 1 1 2.8780205160469828e-02 1.3683344438396599e+00 3.9721868994347220e+00 1.7739454635454287e+01 0 0 0
142 1 1 1.9494862135488220e-02 1.6831304456672818e+01 4.0589040607161353e+00 1.7760256068066077e+01 0 0 0
143 1 1 2.5417578184317002e-02 1.2966533457446591e+01 8.2668678542915259e+00 6.5294650714107885e+00 0 0 0
144 1 1 3.1498615861914304e-02 2.8228901141461790e+01 8.0334390853799036e+00 6.7483367542299595e+00 0 0 0
145 1 1 2.4780932951257006e-02 9.6774794009180773e+00 1.7859206953972502e+00 1.9026599871863887e+01 0 0 0
146 1 1 2.1667758327140622e-02 2.5211630241693367e+01 1.7935207540796205e+00 1.8677899038953875e+01 0 0 0
147 1 1 2.0098055636278207e-02 4.2659426582637305e+00 1.0296339681549451e+01 7.5421094213906894e+00 0 0 0
148 1 1 2.2222657879169980e-02 2.0057659527505443e+01 1.0094665471269728e+01 7.8484401335408638e+00 0 0 0
149 1 1 1.9343993508801338e-02 2.1018360076560825e+00 1.0321564752237649e+01 1.8938253601243765e+01 0 0 0
150 1 1 2.3985119504962328e-02 1.7650110469756751e+01 1.0811870975868935e+01 1.8957210997923298e+01 0 0 0
151 1 1 2.4898702458701849e-02 1.2337976798098925e+01 1.5897649335281676e+00 7.8477535377522383e+00 0 0 0
152 1 1 1.3078245909990859e-02 2.7501850690921337e+01 1.9383038856929811e+00 7.3896962216436979e+00 0 0 0
153 1 1 2.6258779431091363e-02 9.8243344505316461e+00 7.3492770132691083e+00 1.8540491151640637e+01 0 0 0
154 1 1 1.8829274143971439e-02 2.5520217785891774e+01 7.7310866379277758e+00 1.9088063370374677e+01 0 0 0
155 1 1 2.0823466631466343e-02 4.3637677394542305e+00 4.8598832217177987e+00 7.6856374298464978e+00 0 0 0
156 1 1 1.9557131066781353e-02 2.0182381760624764e+01 4.5922068746238791e+00 7.5513664537259686e+00 0 0 0
157 1 1 2.3780137400238835e-02 2.0382335128989348e+00 4.6449514968481402e+00 1.8829914021517084e+01 0 0 0
158 1 1 1.4733030617652125e-02 1.7431926012825002e+01 4.7157495057458805e+00 1.8885814518684334e+01 0 0 0
159 1 1 1.4514734170977907e-02 1.2281702297169719e+01 7.5104968448373892e+00 7.5143848373554114e+00 0 0 0
160 1 1 1.9937176311583815e-02 2.7612410469353090e+01 7.4133441065884966e+00 7.8551925118418655e+00 0 0 0
161 1 1 4.1641180993470153e-02 9.0523130130932845e+00 6.7993399172517188e-01 1.9702082904057832e+01 0 0 0
162 1 1 4.6246249602773237e-02 2.4535455189656130e+01 1.0013053918676054e+00 1.9641937960556582e+01 0 0 0
163 1 1 4.4001937355279561e-02 4.8927311110411793e+00 1.1300171312029974e+01 8.3485762716881116e+00 0 0 0
164 1 1 4.4346560386718567e-02 2.0655742501204582e+01 1.1303490584706545e+01 8.3529330785363545e+00 0 0 0
165 1 1 2.8822421575276373e-02 1.3845913179995284e+00 1.1300434242726812e+01 1.9713659436202128e+01 0 0 0
166 1 1 3.8622469100346390e-02 1.6985785606653128e+01 7.7478383092157599e-01 1.9673013895809667e+01 0 1 0
167 1 1 3.6945014901580933e-02 1.2851364563912110e+01 1.1519761614326129e+01 8.5536699954168274e+00 0 -1 0
168 1 1 3.7307516248243314e-02 2.8117334529562228e+01 9.4903578971482727e-01 8.1758641914226846e+00 0 0 0
169 1 1 4.8273263877438501e-02 9.1127210886506589e+00 6.4655879535720295e+00 1.9372123301873060e+01 0 0 0
170 1 1 3.7608574139438758e-02 2.4847083032608314e+01 6.6898189113063937e+00 1.9814685086703037e+01 0 0 0
171 1 1 4.4494995122722772e-02 5.0126745214678419e+00 5.9035092286132036e+00 8.3818867527570706e+00 0 0 0
172 1 1 4.3294311620807435e-02 2.0944206213444627e+01 5.4700685836816740e+00 8.4266114200465694e+00 0 0 0
173 1 1 4.4362332441473404e-02 1.4188811024905454e+00 5.7047248523109317e+00 1.9518228345406207e+01 0 0 0
174 1 1 4.7881818429849843e-02 1.6811445283238459e+01 5.7396357800362949e+00 1.9690133318642616e+01 0 0 0
175 1 1 4.2247898463392400e-02 1.2902741572468580e+01 6.3807600611486270e+00 8.1148467091070327e+00 0 0 0
176 1 1 3.9641695277500388e-02 2.8201229008596194e+01 6.5823520471833659e+00 8.8269066848639941e+00 0 0 0
177 1 1 9.7234623778879037e-03 7.6280248801614032e+00 1.1599276296459557e+01 1.9582714640057453e+01 0 -1 0
178 1 1 5.1911171724610267e-03 2.3149977264296346e+01 7.3145956849296201e-01 1.9407519664004788e+01 0 0 0
179 1 1 1.4834285787210341e-02 6.2758936027444117e+00 1.1542232741231938e+01 8.0617914691389903e+00 0 0 0
180 1 1 1.3375961825941751e-02 2.2081587990444216e+01 1.1519510964693051e+01 8.1064907313367627e+00 0 0 0
181 1 1 1.1202811388326451e-02 -1.9315175473499591e-02 1.1493089078823818e+01 1.9568115404095508e+01 0 0 0
182 1 1 4.1597821473360747e-03 1.5657248866221572e+01 1.1246810563844889e+00 1.9309003863839969e+01 0 1 0
183 1 1 9.4519122642211066e-03 1.4171244063072924e+01 1.1097229957698236e+01 8.3277166355081391e+00 0 -1 0
184 1 1 4.5298268484579504e-03 2.9515152098631035e+01 6.4477598348494891e-01 8.0235057703423909e+00 0 0 0
185 1 1 4.8869982703888086e-03 7.6707051560398885e+00 6.3679150212756985e+00 1.9215869671136382e+01 0 0 0
186 1 1 2.3603307772493275e-02 2.3440788458299018e+01 6.5264871382152476e+00 1.9583804887178459e+01 0 0 0
187 1 1 1.0802694536132477e-02 6.3939111201885677e+00 6.1169180995068855e+00 8.0915385954789976e+00 0 0 0
188 1 1 3.7404733140376407e-03 2.2334983393086432e+01 5.5489064342637038e+00 8.1804863773943559e+00 0 0 0
189 1 1 9.2351013611173989e-03 8.4647289966467310e-02 6.1058779098851650e+00 1.9175195007444948e+01 0 0 0
190 1 1 2.4294111504242991e-02 1.5494828733510356e+01 6.0911207726355014e+00 1.9380039570275713e+01 0 0 0
191 1 1 1.4437482262124653e-02 1.4303847761050731e+01 6.1345778214795992e+00 7.8741834857573885e+00 0 0 0
192 1 1 1.2940455216849330e-02 2.9585128710670922e+01 6.2684007716006427e+00 8.5306029253895641e+00 0 0 0
193 1 1 3.6725817742714210e-02 6.8075531207066877e+00 1.4335122613146938e+00 1.8834508330898636e+01 0 0 0
194 1 1 2.9477224734589115e-02 2.2380044688419041e+01 1.3906672075593600e+00 1.8412400000231585e+01 0 0 0
195 1 1 3.4638884629681989e-02 7.0741427906548031e+00 1.0833393533636748e+01 7.1192770900919324e+00 0 0 0
196 1 1 3.4439061987243828e-02 2.2717704035461853e+01 1.0675255329694103e+01 7.1455608364705760e+00 0 0 0
197 1 1 3.0889790157366259e-02 1.4852306235966235e+01 1.1485120646254462e+01 1.8368959230178547e+01 0 0 0
198 1 1 3.2985894715105143e-02 3.0249308200638225e+01 1.0792859635477214e+01 1.8528650085682500e+01 0 0 0
199 1 1 3.6480745739525422e-02 3.0351788635857901e+01 1.2602108230785953e+00 7.0409934674963583e+00 -1 0 0
200 1 1 2.5724224901628297e-02 1.5006875696904125e+01 7.0302187207399203e-01 7.3495014197337980e+00 0 0 0
201 1 1 2.5891302033198886e-02 6.9892764635297091e+00 7.0734328932893442e+00 1.8176944770337848e+01 0 0 0
202 1 1 3.8172345499776147e-02 2.2801989162824725e+01 7.1785914363416330e+00 1.8483992716483272e+01 0 0 0
203 1 1 3.2340254024373530e-02 7.0838840007827084e+00 5.3737136472400042e+00 7.0724864912388821e+00 0 0 0
204 1 1 2.3661785535486882e-02 2.3075320297525284e+01 4.8265490369244954e+00 7.1885156241328438e+00 0 0 0
205 1 1 4.3673383570135733e-02 1.4817838328904884e+01 5.4767936484256543e+00 1.8277617311672316e+01 0 0 0
206 1 1 3.4203444156814755e-02 3.0276840109460892e+01 5.3441705194022848e+00 1.8276322578887736e+01 0 0 0
207 1 1 3.6268918148504629e-02 3.0301308534121961e+01 6.8395292469661593e+00 7.4544703167609008e+00 -1 0 0
208 1 1 3.2096006426001161e-02 1.5089500825755785e+01 6.9457653270803226e+00 7.0328973083814343e+00 0 0 0
209 1 1 -6.7074586540971010e-02 6.6985587829312792e+00 3.2875332462285476e+00 1.7136749964768356e+01 0 0 0
210 1 1 -6.4047941064670891e-02 2.2298726588539004e+01 2.9394922281041120e+00 1.6432895629719951e+01 0 0 0
211 1 1 -6.3034274272379620e-02 7.2062724143331316e+00 9.0846065060360779e+00 5.2820503441706590e+00 0 0 0
212 1 1 -6.6851409034395376e-02 2.2745921617991463e+01 8.8473070410485164e+00 5.4531198950570925e+00 0 0 0
213 1 1 -6.2014421074288062e-02 1.4815261405638807e+01 9.7029947318495431e+00 1.6584903657436477e+01 0 0 0
214 1 1 -6.7569814810189643e-02 3.0277763185657779e+01 8.9773675277624854e+00 1.6828490116600229e+01 0 0 0
215 1 1 -5.9129767621313944e-02 -4.9809839555586283e-01 2.8583164360136393e+00 5.0778295196927088e+00 0 0 0
216 1 1 -6.1779313399375577e-02 1.5348093742099138e+01 2.8322376815526464e+00 5.9810939350412342e+00 0 0 0
217 1 1 -6.3565196716945160e-02 6.9969154436868228e+00 8.9114332235795040e+00 1.6434076720457455e+01 0 0 0
218 1 1 -6.0793491176548045e-02 2.2811086699393218e+01 8.8540772898097551e+00 1.6574062949201007e+01 0 0 0
219 1 1 -5.5679648709919240e-02 7.1366233948640545e+00 3.7000740766824820e+00 5.1879666736374377e+00 0 0 0
220 1 1 -5.8228268289228460e-02 2.2931573398654518e+01 3.6224488009509250e+00 4.9419009063036423e+00 0 0 0
221 1 1 -6.1137119765729470e-02 1.4743229699038428e+01 3.6470902335916549e+00 1.6445139204179711e+01 0 0 0
222 1 1 -6.0052060635258933e-02 3.0198844589197400e+01 3.4555278632577320e+00 1.6583175624782200e+01 0 0 0
223 1 1 -5.4466977073095613e-02 -5.5801804129731092e-01 8.5260494957226154e+00 5.5286246449556762e+00 0 0 0
224 1 1 -7.4392768751627480e-02 1.5164940659513968e+01 8.7853779362973086e+00 5.2524646069885890e+00 0 0 0
225 1 2 2.1890425417013915e-01 6.1118870876023745e+00 1.1363015341871421e+01 3.1406194432808245e+00 0 0 0
226 1 2 2.2930153873777293e-01 2.1538616643516079e+01 1.1209286424726038e+01 2.8820712488871427e+00 0 0 0
227 1 2 2.3616894494513274e-01 8.5897575022698582e+00 1.3880076144726341e+00 1.4435819951341253e+01 0 0 0
228 1 2 2.3027122692833574e-01 2.4038251195290865e+01 1.0719975432755438e+00 1.4307891559254616e+01 0 0 0
229 1 2 2.2845219227904762e-01 1.3439857658366929e+01 1.1281245584064621e+00 2.8305491148128308e+00 0 0 0
230 1 2 2.2832940221206399e-01 2.9016413181048353e+01 6.1203974746945433e-01 3.0861174920268049e+00 0 0 0
231 1 2 2.2844955103967857e-01 7.4568625796489318e-01 1.0775370878896862e+01 1.4047557191126335e+01 0 0 0
232 1 2 2.3520242724467738e-01 1.5922623638367224e+01 1.1366205223535275e+01 1.4016905040234688e+01 0 0 0
233 1 2 2.2188875308380496e-01 5.7940046541791972e+00 5.7406138847937642e+00 3.0417349871267190e+00 0 0 0
234 1 2 2.1928872866920152e-01 2.1370366773222703e+01 5.8081883575029440e+00 2.9975494882576115e+00 0 0 0
235 1 2 2.3291022226617608e-01 8.4601839769560350e+00 6.2402244387678065e+00 1.4503382409761867e+01 0 0 0
236 1 2 2.2807124926765898e-01 2.4234799419508391e+01 6.7363591394794717e+00 1.4713720861058192e+01 0 0 0
237 1 2 2.2479672705980322e-01 1.3702746910218574e+01 6.4742026255579468e+00 2.9423994342275588e+00 0 0 0
238 1 2 2.3058566971773081e-01 2.9196133569712668e+01 6.5691173835660708e+00 2.9695598382424704e+00 0 0 0
239 1 2 2.2303844256863975e-01 5.4846038394845020e-01 5.4607586632105258e+00 1.4009034028954490e+01 0 0 0
240 1 2 2.2339514762440008e-01 1.6165427035348337e+01 5.8771286672208163e+00 1.4480367502643906e+01 0 0 0
241 1 2 2.4028331782570012e-01 6.2078319542886984e+00 3.6878017498413653e+00 -5.3903595233085266e-01 0 0 0
242 1 2 2.5199831401339479e-01 2.2066083503294781e+01 3.5126765320935984e+00 -7.8482863575212569e-01 0 0 0
243 1 2 2.4275436150871166e-01 8.3748588204943406e+00 8.8205499899814264e+00 1.0790429241132239e+01 0 0 0
244 1 2 2.4047751742655801e-01 2.3591415119979896e+01 8.6173863625339919e+00 1.0763137980312028e+01 0 0 0
245 1 2 2.4532151877136738e-01 1.3975764367787281e+01 8.6221191628130995e+00 -7.0400136171856331e-01 0 0 0
246 1 2 2.3469503470036390e-01 2.9243251945468376e+01 8.3893087875302967e+00 -8.5755590961304962e-01 0 0 0
247 1 2 2.4132879496453410e-01 5.2566120813556294e-01 3.4121842577273931e+00 1.0554604759603425e+01 0 0 0
248 1 2 2.4583003214769214e-01 1.6024326346606884e+01 3.7418533601528758e+00 1.0286003126645863e+01 0 0 0
249 1 2 2.4292702439970612e-01 5.9450004580450937e+00 9.0817130999043307e+00 -7.3230454558900759e-01 0 0 0
250 1 2 2.3878224221487437e-01 2.1586243489224323e+01 9.1333491669373537e+00 -8.3471658588447117e-01 0 0 0
251 1 2 2.4551715245139077e-01 8.3399232443590936e+00 3.1685101169600354e+00 1.0413747060476213e+01 0 0 0
252 1 2 2.4316381024710293e-01 2.3370989003360521e+01 3.4791770199346486e+00 1.0845286389188063e+01 0 0 0
253 1 2 2.4280378842294595e-01 1.3560604393021530e+01 3.4553373362090345e+00 -1.0252122399285428e+00 0 0 0
254 1 2 2.4798779272247146e-01 2.9529704361314561e+01 3.1779048255223525e+00 -7.2321563311493531e-01 0 0 0
255 1 2 2.3457436308186402e-01 7.9822163622204156e-01 9.0274013702534504e+00 1.0482779873228308e+01 0 0 0
256 1 2 2.4631180237376668e-01 1.5919116648085462e+01 9.2933980936971246e+00 1.0837202231306637e+01 0 0 0
257 1 2 2.3060201711952361e-01 1.8008880404208512e+00 2.7071664081799396e+00 1.9825536794314176e+00 0 0 0
258 1 2 2.4577725681301038e-01 1.7507145525649488e+01 3.1516147821557183e+00 1.6551615713840868e+00 0 0 0
259 1 2 2.2775022221474894e-01 1.2676082255119701e+01 9.5543511663385452e+00 1.3092468065602539e+01 0 0 0
260 1 2 2.4145906545982571e-01 2.8226305598217525e+01 9.5706897389820789e+00 1.2767899878624526e+01 0 0 0
261 1 2 2.2770787685389562e-01 9.5462480981072204e+00 9.0045741408427844e+00 1.8074540599919322e+00 0 0 0
262 1 2 2.3073594578627263e-01 2.4855592037962232e+01 9.1523045736324313e+00 1.6065201212684888e+00 0 0 0
263 1 2 2.3292042395105386e-01 4.8958751530616746e+00 2.5368325677119072e+00 1.3075994354400480e+01 0 0 0
264 1 2 2.4407329573207440e-01 2.0335871610789841e+01 2.8512390987670746e+00 1.2885573933468891e+01 0 0 0
265 1 2 2.3439714717587390e-01 1.4653673806377305e+00 8.0348934868071105e+00 1.5873427982185242e+00 0 0 0
266 1 2 2.2955865630969247e-01 1.7175713222127726e+01 8.4162493109514180e+00 1.6201447297882865e+00 0 0 0
267 1 2 2.2705135181787203e-01 1.2796559209720993e+01 3.8586996245974814e+00 1.2930675602921202e+01 0 0 0
268 1 2 2.3429339692372847e-01 2.7956049990021203e+01 3.7453554693922331e+00 1.2894262203348841e+01 0 0 0
269 1 2 2.3091152653942568e-01 9.6597524377938289e+00 3.5014611264407125e+00 2.1431539897937286e+00 0 0 0
270 1 2 2.3687444962525381e-01 2.5012811521585437e+01 3.8998129531030190e+00 1.6169191070204971e+00 0 0 0
271 1 2 2.2088756078111041e-01 4.8842831715024113e+00 8.2771527834501342e+00 1.3266000410233167e+01 0 0 0
272 1 2 2.3529432780670495e-01 2.0437547811967065e+01 8.5691802753777573e+00 1.3189540905011954e+01 0 0 0
273 1 2 2.3551081736245655e-01 9.7625878242011090e+00 3.4948446818688192e+00 1.7143068148989101e+01 0 0 0
274 1 2 2.2845686052693576e-01 2.5191287937890596e+01 3.5263249748832721e+00 1.6803282310214321e+01 0 0 0
275 1 2 2.2448393460604146e-01 4.2438561739297516e+00 8.5389402305141875e+00 5.7224655313590675e+00 0 0 0
276 1 2 2.2497363867502648e-01 1.9910870809143223e+01 8.3396780512829540e+00 5.9398942668680341e+00 0 0 0
277 1 2 2.3720290046178183e-01 2.1668786851185438e+00 8.4506213527466514e+00 1.7203865491602080e+01 0 0 0
278 1 2 2.3175800682145759e-01 1.7468841429260266e+01 8.9241095883764245e+00 1.7162422761447559e+01 0 0 0
279 1 2 2.3919678766345887e-01 1.2393586949435337e+01 3.4028449657919850e+00 6.0023497923200031e+00 0 0 0