ITEM: TIMESTEP
0
ITEM: NUMBER OF ATOMS
448
ITEM: BOX BOUNDS xy xz yz pp pp pp
-2.4186686450000000e-01 1.3879200000000001e+01 8.1284706647000001e-16
0.0000000000000000e+00 1.3274800000000003e+01 -2.4186686450000000e-01
0.0000000000000000e+00 2.2679910358299999e+01 1.4036330231000001e-15
ITEM: ATOMS id type xs ys zs
1 1 0.343149 0.121085 0.263219
2 2 0.244839 0.126102 0.254574
3 3 0.22532 0.154392 0.213886
4 3 0.202395 0.0991568 0.287858
5 2 0.403261 0.1507 0.218655
6 3 0.477377 0.146643 0.228785
7 3 0.36749 0.173958 0.181188
8 1 0.382518 0.0855402 0.318564
9 2 0.318105 0.0639363 0.369268
10 4 0.350514 0.0822807 0.421641
11 4 0.233248 0.0277699 0.359
12 2 0.487104 0.072309 0.327855
13 4 0.512901 0.0303165 0.376825
14 4 0.546362 0.103521 0.288205
15 1 0.406851 0.371085 0.486781
16 2 0.505161 0.376102 0.495426
17 3 0.52468 0.404392 0.536114
18 3 0.547605 0.349157 0.462142
19 2 0.346739 0.4007 0.531345
20 3 0.272623 0.396643 0.521215
21 3 0.38251 0.423958 0.568812
22 1 0.367482 0.33554 0.431436
23 2 0.431895 0.313936 0.380732
24 4 0.399486 0.332281 0.328359
25 4 0.516752 0.27777 0.391
26 2 0.262896 0.322309 0.422145
27 4 0.237099 0.280317 0.373175
28 4 0.203638 0.353521 0.461795
29 1 0.156851 0.378914 0.236782
30 2 0.255162 0.373898 0.245426
31 3 0.27468 0.345608 0.286114
32 3 0.297605 0.400843 0.212142
33 2 0.0967379 0.3493 0.281345
34 3 0.0226228 0.353357 0.271215
35 3 0.13251 0.326042 0.318812
36 1 0.117482 0.41446 0.181436
37 2 0.181895 0.436064 0.130732
38 4 0.149486 0.417719 0.078358
39 4 0.266753 0.472231 0.141
40 2 0.0128965 0.427691 0.172145
41 4 0.987098 0.469684 0.123174
42 4 0.953637 0.396478 0.211795
43 1 0.0931495 0.128915 0.0132186
44 2 0.994839 0.123898 0.00457426
45 3 0.97532 0.0956076 0.963886
46 3 0.952395 0.150843 0.0378575
47 2 0.153261 0.0992999 0.968655
48 3 0.227377 0.103357 0.978785
49 3 0.11749 0.0760424 0.931188
50 1 0.132518 0.16446 0.0685636
51 2 0.0681054 0.186064 0.119268
52 4 0.100514 0.167719 0.171641
53 4 0.983248 0.22223 0.109
54 2 0.237104 0.177691 0.0778552
55 4 0.262901 0.219683 0.126825
56 4 0.296362 0.146479 0.0382052
57 1 0.843149 0.121085 0.263219
58 2 0.744839 0.126102 0.254574
59 3 0.72532 0.154392 0.213886
60 3 0.702395 0.0991568 0.287858
61 2 0.903261 0.1507 0.218655
62 3 0.977377 0.146643 0.228785
63 3 0.86749 0.173958 0.181188
64 1 0.882518 0.0855402 0.318564
65 2 0.818105 0.0639363 0.369268
66 4 0.850514 0.0822807 0.421641
67 4 0.733248 0.0277699 0.359
68 2 0.987104 0.072309 0.327855
69 4 0.0129014 0.0303165 0.376825
70 4 0.0463624 0.103521 0.288205
71 1 0.906851 0.371085 0.486781
72 2 0.00516132 0.376102 0.495426
73 3 0.0246798 0.404392 0.536114
74 3 0.0476046 0.349157 0.462142
75 2 0.846739 0.4007 0.531345
76 3 0.772623 0.396643 0.521215
77 3 0.88251 0.423958 0.568812
78 1 0.867482 0.33554 0.431436
79 2 0.931895 0.313936 0.380732
80 4 0.899486 0.332281 0.328359
81 4 0.0167519 0.27777 0.391
82 2 0.762896 0.322309 0.422145
83 4 0.737099 0.280317 0.373175
84 4 0.703638 0.353521 0.461795
85 1 0.656851 0.378914 0.236781
86 2 0.755161 0.373898 0.245426
87 3 0.77468 0.345608 0.286114
88 3 0.797605 0.400843 0.212142
89 2 0.596739 0.3493 0.281344
90 3 0.522623 0.353357 0.271215
91 3 0.63251 0.326042 0.318811
92 1 0.617481 0.41446 0.181436
93 2 0.681895 0.436064 0.130732
94 4 0.649485 0.417718 0.078359
95 4 0.766751 0.47223 0.140999
96 2 0.512896 0.427691 0.172146
97 4 0.487099 0.469684 0.123175
98 4 0.453638 0.396479 0.211795
99 1 0.593149 0.128915 0.0132186
100 2 0.494839 0.123898 0.00457426
101 3 0.47532 0.0956075 0.963886
102 3 0.452395 0.150843 0.0378575
103 2 0.653261 0.0992999 0.968655
104 3 0.727377 0.103357 0.978785
105 3 0.61749 0.0760424 0.931188
106 1 0.632518 0.16446 0.0685636
107 2 0.568105 0.186064 0.119268
108 4 0.600514 0.167719 0.171641
109 4 0.483248 0.22223 0.109
110 2 0.737104 0.177691 0.0778552
111 4 0.762901 0.219683 0.126825
112 4 0.796362 0.146479 0.0382052
113 1 0.343149 0.621085 0.263219
114 2 0.244838 0.626102 0.254574
115 3 0.22532 0.654392 0.213886
116 3 0.202395 0.599157 0.287858
117 2 0.403261 0.6507 0.218655
118 3 0.477377 0.646643 0.228785
119 3 0.36749 0.673958 0.181188
120 1 0.382518 0.58554 0.318564
121 2 0.318105 0.563936 0.369268
122 4 0.350514 0.582281 0.421641
123 4 0.233248 0.52777 0.359
124 2 0.487104 0.572309 0.327855
125 4 0.512901 0.530317 0.376825
126 4 0.546362 0.603521 0.288205
127 1 0.406851 0.871085 0.486781
128 2 0.505161 0.876102 0.495426
129 3 0.52468 0.904392 0.536114
130 3 0.547605 0.849157 0.462142
131 2 0.346739 0.9007 0.531345
132 3 0.272623 0.896643 0.521215
133 3 0.38251 0.923958 0.568812
134 1 0.367482 0.83554 0.431436
135 2 0.431895 0.813936 0.380732
136 4 0.399486 0.832281 0.328359
137 4 0.516752 0.77777 0.391
138 2 0.262896 0.822309 0.422145
139 4 0.237099 0.780317 0.373175
140 4 0.203638 0.853521 0.461795
141 1 0.156851 0.878914 0.236782
142 2 0.255162 0.873898 0.245426
143 3 0.27468 0.845608 0.286114
144 3 0.297605 0.900843 0.212142
145 2 0.0967379 0.8493 0.281345
146 3 0.0226228 0.853357 0.271215
147 3 0.13251 0.826042 0.318812
148 1 0.117482 0.91446 0.181436
149 2 0.181895 0.936064 0.130732
150 4 0.149486 0.917719 0.078358
151 4 0.266753 0.972231 0.141
152 2 0.0128965 0.927691 0.172145
153 4 0.987098 0.969684 0.123174
154 4 0.953637 0.896478 0.211795
155 1 0.0931495 0.628915 0.0132186
156 2 0.994839 0.623898 0.00457425
157 3 0.97532 0.595608 0.963886
158 3 0.952395 0.650843 0.0378575
159 2 0.153261 0.5993 0.968655
160 3 0.227377 0.603357 0.978785
161 3 0.11749 0.576042 0.931188
162 1 0.132518 0.66446 0.0685636
163 2 0.0681054 0.686064 0.119268
164 4 0.100514 0.667719 0.171641
165 4 0.983248 0.72223 0.109
166 2 0.237104 0.677691 0.0778552
167 4 0.262901 0.719683 0.126825
168 4 0.296362 0.646479 0.0382052
169 1 0.843149 0.621085 0.263219
170 2 0.744839 0.626102 0.254574
171 3 0.72532 0.654392 0.213886
172 3 0.702395 0.599157 0.287858
173 2 0.903261 0.6507 0.218655
174 3 0.977377 0.646643 0.228785
175 3 0.86749 0.673958 0.181188
176 1 0.882518 0.58554 0.318564
177 2 0.818105 0.563936 0.369268
178 4 0.850514 0.582281 0.421641
179 4 0.733248 0.52777 0.359
180 2 0.987104 0.572309 0.327855
181 4 0.0129014 0.530317 0.376825
182 4 0.0463624 0.603521 0.288205
183 1 0.906851 0.871085 0.486781
184 2 0.00516135 0.876102 0.495426
185 3 0.0246798 0.904392 0.536114
186 3 0.0476046 0.849157 0.462142
187 2 0.846739 0.9007 0.531345
188 3 0.772623 0.896643 0.521215
189 3 0.88251 0.923958 0.568812
190 1 0.867482 0.83554 0.431436
191 2 0.931895 0.813936 0.380732
192 4 0.899486 0.832281 0.328359
193 4 0.016752 0.77777 0.391
194 2 0.762896 0.822309 0.422145
195 4 0.737099 0.780317 0.373175
196 4 0.703638 0.853521 0.461795
197 1 0.656851 0.878914 0.236781
198 2 0.755161 0.873898 0.245426
199 3 0.77468 0.845608 0.286114
200 3 0.797605 0.900843 0.212142
201 2 0.596739 0.8493 0.281344
202 3 0.522623 0.853357 0.271215
203 3 0.63251 0.826042 0.318811
204 1 0.617481 0.91446 0.181436
205 2 0.681895 0.936064 0.130732
206 4 0.649485 0.917718 0.078359
207 4 0.766751 0.97223 0.140999
208 2 0.512896 0.927691 0.172146
209 4 0.487099 0.969684 0.123175
210 4 0.453638 0.896479 0.211795
211 1 0.593149 0.628915 0.0132186
212 2 0.494839 0.623898 0.00457426
213 3 0.47532 0.595608 0.963886
214 3 0.452395 0.650843 0.0378575
215 2 0.653261 0.5993 0.968655
216 3 0.727377 0.603357 0.978785
217 3 0.61749 0.576042 0.931188
218 1 0.632518 0.66446 0.0685636
219 2 0.568105 0.686064 0.119268
220 4 0.600514 0.667719 0.171641
221 4 0.483248 0.72223 0.109
222 2 0.737104 0.677691 0.0778552
223 4 0.762901 0.719683 0.126825
224 4 0.796362 0.646479 0.0382052
225 1 0.343149 0.121085 0.763219
226 2 0.244838 0.126102 0.754574
227 3 0.22532 0.154392 0.713886
228 3 0.202395 0.0991568 0.787858
229 2 0.403262 0.1507 0.718655
230 3 0.477377 0.146643 0.728785
231 3 0.36749 0.173958 0.681188
232 1 0.382519 0.08554 0.818564
233 2 0.318105 0.0639364 0.869268
234 4 0.350514 0.082282 0.921641
235 4 0.233247 0.0277697 0.859
236 2 0.487104 0.072309 0.827855
237 4 0.512902 0.0303163 0.876825
238 4 0.546363 0.103521 0.788205
239 1 0.406884 0.371111 0.986827
240 2 0.505523 0.37612 0.995464
241 3 0.524707 0.404404 0.0361316
242 3 0.547611 0.349157 0.962139
243 2 0.346523 0.400814 0.0315136
244 3 0.27261 0.396643 0.0212163
245 3 0.38251 0.423972 0.0688334
246 1 0.367424 0.33545 0.931304
247 2 0.431899 0.313926 0.880751
248 4 0.399393 0.33234 0.828196
249 4 0.516992 0.277665 0.891021
250 2 0.262913 0.322301 0.922141
251 4 0.237012 0.28018 0.873021
252 4 0.203415 0.353626 0.961928
253 1 0.156851 0.378915 0.736781
254 2 0.25516 0.373898 0.745426
255 3 0.274683 0.345608 0.786114
256 3 0.297605 0.400843 0.712142
257 2 0.096739 0.349301 0.781343
258 3 0.0226229 0.353357 0.771215
259 3 0.132507 0.326043 0.81881
260 1 0.117482 0.414459 0.681437
261 2 0.181895 0.436064 0.630732
262 4 0.149486 0.417719 0.57836
263 4 0.266751 0.47223 0.641
264 2 0.0128961 0.427691 0.672145
265 4 0.987099 0.469683 0.623176
266 4 0.953639 0.396479 0.711794
267 1 0.0931495 0.128915 0.513219
268 2 0.994838 0.123898 0.504574
269 3 0.97532 0.0956076 0.463886
270 3 0.952395 0.150843 0.537858
271 2 0.153262 0.0992999 0.468655
272 3 0.227377 0.103357 0.478785
273 3 0.11749 0.0760424 0.431188
274 1 0.132518 0.16446 0.568564
275 2 0.0681054 0.186064 0.619268
276 4 0.100514 0.167719 0.671641
277 4 0.983248 0.22223 0.609
278 2 0.237104 0.177691 0.577855
279 4 0.262901 0.219683 0.626825
280 4 0.296362 0.146479 0.538205
281 1 0.843149 0.121085 0.763219
282 2 0.744838 0.126102 0.754574
283 3 0.72532 0.154392 0.713886
284 3 0.702395 0.0991568 0.787858
285 2 0.903262 0.1507 0.718655
286 3 0.977377 0.146643 0.728785
287 3 0.86749 0.173958 0.681188
288 1 0.882518 0.0855402 0.818564
289 2 0.818105 0.0639363 0.869268
290 4 0.850514 0.0822807 0.921641
291 4 0.733248 0.0277699 0.859
292 2 0.987104 0.072309 0.827855
293 4 0.0129014 0.0303165 0.876825
294 4 0.0463625 0.103521 0.788205
295 1 0.906851 0.371085 0.986782
296 2 0.00516151 0.376102 0.995426
297 3 0.0246799 0.404392 0.036114
298 3 0.0476048 0.349157 0.962142
299 2 0.846738 0.4007 0.0313446
300 3 0.772623 0.396643 0.0212146
301 3 0.88251 0.423958 0.0688115
302 1 0.867482 0.33554 0.931436
303 2 0.931895 0.313936 0.880732
304 4 0.899486 0.332281 0.828359
305 4 0.0167521 0.27777 0.891
306 2 0.762896 0.322309 0.922145
307 4 0.737099 0.280317 0.873175
308 4 0.703638 0.353521 0.961795
309 1 0.656851 0.378915 0.736781
310 2 0.755162 0.373898 0.745426
311 3 0.77468 0.345608 0.786114
312 3 0.797605 0.400843 0.712142
313 2 0.596739 0.3493 0.781345
314 3 0.522623 0.353357 0.771215
315 3 0.63251 0.326042 0.818812
316 1 0.617482 0.41446 0.681436
317 2 0.681895 0.436064 0.630732
318 4 0.649486 0.417719 0.578359
319 4 0.766752 0.47223 0.641
320 2 0.512896 0.427691 0.672145
321 4 0.487099 0.469684 0.623175
322 4 0.453637 0.396479 0.711795
323 1 0.593149 0.128915 0.513219
324 2 0.494838 0.123898 0.504574
325 3 0.47532 0.0956075 0.463886
326 3 0.452395 0.150843 0.537858
327 2 0.653262 0.0992999 0.468655
328 3 0.727377 0.103357 0.478785
329 3 0.61749 0.0760424 0.431188
330 1 0.632518 0.16446 0.568564
331 2 0.568105 0.186064 0.619268
332 4 0.600514 0.167719 0.671641
333 4 0.483248 0.22223 0.609
334 2 0.737104 0.177691 0.577855
335 4 0.762901 0.219684 0.626825
336 4 0.796362 0.146479 0.538205
337 1 0.343149 0.621085 0.763219
338 2 0.244838 0.626102 0.754574
339 3 0.22532 0.654392 0.713886
340 3 0.202395 0.599157 0.787858
341 2 0.403262 0.6507 0.718655
342 3 0.477377 0.646643 0.728785
343 3 0.36749 0.673958 0.681188
344 1 0.382519 0.58554 0.818564
345 2 0.318105 0.563936 0.869268
346 4 0.350514 0.582282 0.921641
347 4 0.233247 0.52777 0.859
348 2 0.487104 0.572309 0.827855
349 4 0.512902 0.530316 0.876825
350 4 0.546363 0.603521 0.788205
351 1 0.406884 0.871111 0.986827
352 2 0.505523 0.87612 0.995464
353 3 0.524707 0.904404 0.0361316
354 3 0.547611 0.849157 0.962139
355 2 0.346523 0.900814 0.0315135
356 3 0.27261 0.896643 0.0212163
357 3 0.38251 0.923972 0.0688334
358 1 0.367424 0.83545 0.931304
359 2 0.431899 0.813926 0.880751
360 4 0.399393 0.83234 0.828196
361 4 0.516992 0.777665 0.891021
362 2 0.262913 0.822301 0.922141
363 4 0.237012 0.78018 0.873021
364 4 0.203415 0.853626 0.961928
365 1 0.156851 0.878915 0.736781
366 2 0.25516 0.873898 0.745426
367 3 0.274683 0.845608 0.786114
368 3 0.297605 0.900843 0.712142
369 2 0.0967391 0.849301 0.781343
370 3 0.0226229 0.853357 0.771215
371 3 0.132507 0.826043 0.81881
372 1 0.117482 0.914459 0.681437
373 2 0.181895 0.936064 0.630732
374 4 0.149486 0.91772 0.57836
375 4 0.266751 0.97223 0.641
376 2 0.0128961 0.927691 0.672145
377 4 0.987099 0.969683 0.623176
378 4 0.953639 0.896479 0.711794
379 1 0.0931495 0.628915 0.513219
380 2 0.994838 0.623898 0.504574
381 3 0.97532 0.595608 0.463886
382 3 0.952395 0.650843 0.537858
383 2 0.153262 0.5993 0.468655
384 3 0.227377 0.603357 0.478785
385 3 0.11749 0.576042 0.431188
386 1 0.132518 0.66446 0.568564
387 2 0.0681054 0.686064 0.619268
388 4 0.100514 0.667719 0.671641
389 4 0.983248 0.72223 0.609
390 2 0.237104 0.677691 0.577855
391 4 0.262901 0.719683 0.626825
392 4 0.296362 0.646479 0.538205
393 1 0.843149 0.621085 0.763219
394 2 0.744838 0.626102 0.754574
395 3 0.72532 0.654392 0.713886
396 3 0.702395 0.599157 0.787858
397 2 0.903262 0.6507 0.718655
398 3 0.977377 0.646643 0.728785
399 3 0.86749 0.673958 0.681188
400 1 0.882518 0.58554 0.818564
401 2 0.818105 0.563936 0.869268
402 4 0.850514 0.582281 0.921641
403 4 0.733248 0.52777 0.859
404 2 0.987104 0.572309 0.827855
405 4 0.0129014 0.530316 0.876825
406 4 0.0463625 0.603521 0.788205
407 1 0.906851 0.871085 0.986782
408 2 0.00516153 0.876102 0.995426
409 3 0.0246799 0.904392 0.036114
410 3 0.0476048 0.849157 0.962142
411 2 0.846738 0.9007 0.0313446
412 3 0.772623 0.896643 0.0212146
413 3 0.88251 0.923958 0.0688115
414 1 0.867482 0.83554 0.931436
415 2 0.931895 0.813936 0.880732
416 4 0.899486 0.832281 0.828359
417 4 0.0167521 0.77777 0.891
418 2 0.762896 0.822309 0.922145
419 4 0.737099 0.780317 0.873175
420 4 0.703638 0.853521 0.961795
421 1 0.656851 0.878915 0.736781
422 2 0.755162 0.873898 0.745426
423 3 0.77468 0.845608 0.786114
424 3 0.797605 0.900843 0.712142
425 2 0.596739 0.8493 0.781345
426 3 0.522623 0.853357 0.771215
427 3 0.63251 0.826042 0.818812
428 1 0.617482 0.91446 0.681436
429 2 0.681895 0.936064 0.630732
430 4 0.649486 0.917719 0.578359
431 4 0.766752 0.97223 0.641
432 2 0.512896 0.927691 0.672145
433 4 0.487099 0.969684 0.623175
434 4 0.453637 0.896479 0.711795
435 1 0.593149 0.628915 0.513219
436 2 0.494838 0.623898 0.504574
437 3 0.47532 0.595608 0.463886
438 3 0.452395 0.650843 0.537858
439 2 0.653262 0.5993 0.468655
440 3 0.727377 0.603357 0.478785
441 3 0.61749 0.576042 0.431188
442 1 0.632518 0.66446 0.568564
443 2 0.568105 0.686064 0.619268
444 4 0.600514 0.667719 0.671641
445 4 0.483248 0.72223 0.609
446 2 0.737104 0.677691 0.577855
447 4 0.762901 0.719684 0.626825
448 4 0.796362 0.646479 0.538205
ITEM: TIMESTEP
1000
ITEM: NUMBER OF ATOMS
448
ITEM: BOX BOUNDS xy xz yz pp pp pp
-4.4158846027111420e-01 1.3820427933573342e+01 -2.1090180202567032e-04
-8.4007424101652706e-01 1.3899899173586419e+01 -5.0014962489576187e-01
2.2316394870931333e-01 2.2456746409590671e+01 -2.1497506743011374e-01
ITEM: ATOMS id type xs ys zs
1 1 0.353317 0.115519 0.265984
2 2 0.253519 0.109888 0.24955
3 3 0.248917 0.147283 0.210474
4 3 0.213605 0.0952045 0.28992
5 2 0.408919 0.154614 0.220786
6 3 0.484118 0.155753 0.235039
7 3 0.368867 0.164382 0.181675
8 1 0.395176 0.0931831 0.323308
9 2 0.332914 0.0495651 0.366779
10 4 0.371985 0.0244897 0.417631
11 4 0.238754 0.0414662 0.355482
12 2 0.501617 0.112227 0.338141
13 4 0.531489 0.0944226 0.391757
14 4 0.554875 0.138558 0.294927
15 1 0.398788 0.377365 0.481914
16 2 0.498149 0.390632 0.488062
17 3 0.520722 0.416683 0.530598
18 3 0.532685 0.366647 0.451268
19 2 0.339161 0.387132 0.530631
20 3 0.266845 0.376185 0.517407
21 3 0.376533 0.411584 0.567694
22 1 0.361503 0.343489 0.424271
23 2 0.419788 0.32983 0.369157
24 4 0.377417 0.336213 0.317532
25 4 0.50831 0.301052 0.378935
26 2 0.262836 0.302961 0.42139
27 4 0.237297 0.253778 0.374759
28 4 0.206788 0.314376 0.46632
29 1 0.135761 0.378371 0.232234
30 2 0.233665 0.370889 0.242987
31 3 0.247101 0.330784 0.280138
32 3 0.27831 0.398348 0.207586
33 2 0.0765025 0.337732 0.272805
34 3 0.00451925 0.35723 0.26415
35 3 0.114278 0.306693 0.307123
36 1 0.0937 0.425473 0.179246
37 2 0.158234 0.452381 0.130843
38 4 0.115615 0.46756 0.0803473
39 4 0.252906 0.455506 0.140623
40 2 0.99045 0.44408 0.174073
41 4 0.958615 0.485833 0.1252
42 4 0.930556 0.415344 0.213565
43 1 0.118485 0.131398 0.0103168
44 2 0.0211863 0.105972 0.00266815
45 3 0.00989089 0.0603814 0.968369
46 3 0.976731 0.127671 0.0353013
47 2 0.187641 0.108602 0.969132
48 3 0.265825 0.12104 0.991174
49 3 0.157622 0.0706826 0.931565
50 1 0.147008 0.180321 0.0647416
51 2 0.0713012 0.216801 0.105453
52 4 0.0885024 0.210558 0.162744
53 4 0.993265 0.252924 0.0826265
54 2 0.25109 0.202369 0.0762229
55 4 0.265725 0.244932 0.127032
56 4 0.319591 0.184135 0.0395541
57 1 0.851981 0.121464 0.266208
58 2 0.755817 0.110984 0.25262
59 3 0.737826 0.12175 0.20684
60 3 0.706606 0.0849964 0.290824
61 2 0.913698 0.155334 0.222854
62 3 0.986556 0.161721 0.239382
63 3 0.873584 0.173707 0.18245
64 1 0.886285 0.100149 0.326657
65 2 0.820541 0.0645247 0.372093
66 4 0.860877 0.0500245 0.423861
67 4 0.727627 0.051435 0.360676
68 2 0.994221 0.0937637 0.336231
69 4 0.0146232 0.0535182 0.386075
70 4 0.0532147 0.129676 0.299123
71 1 0.892663 0.358179 0.480504
72 2 0.992108 0.381077 0.486523
73 3 0.00744918 0.394159 0.532693
74 3 0.0397938 0.350583 0.455572
75 2 0.837641 0.365231 0.533158
76 3 0.757045 0.365469 0.514139
77 3 0.886773 0.39258 0.563652
78 1 0.856893 0.329995 0.422285
79 2 0.924988 0.317191 0.371996
80 4 0.88783 0.302819 0.319222
81 4 0.0175158 0.329924 0.379775
82 2 0.754261 0.30171 0.41623
83 4 0.724753 0.265213 0.366552
84 4 0.696718 0.309618 0.461978
85 1 0.644492 0.357859 0.228037
86 2 0.744395 0.336138 0.234562
87 3 0.767321 0.321252 0.279535
88 3 0.785116 0.373693 0.203976
89 2 0.581165 0.327656 0.269405
90 3 0.510139 0.355473 0.262987
91 3 0.616531 0.289547 0.302348
92 1 0.607399 0.412925 0.180308
93 2 0.673184 0.447572 0.133701
94 4 0.654121 0.418403 0.0806378
95 4 0.748972 0.494708 0.153663
96 2 0.500464 0.439329 0.17406
97 4 0.478867 0.490673 0.128916
98 4 0.439893 0.41108 0.213867
99 1 0.620113 0.108621 0.0139363
100 2 0.521528 0.0952603 0.00207519
101 3 0.514757 0.0577178 0.964271
102 3 0.480729 0.142647 0.0279378
103 2 0.691759 0.0708305 0.975934
104 3 0.760474 0.0869227 0.995043
105 3 0.66046 0.0670789 0.929655
106 1 0.650301 0.145506 0.0711422
107 2 0.575705 0.155225 0.117766
108 4 0.607808 0.153176 0.173102
109 4 0.484393 0.164785 0.104761
110 2 0.75389 0.166677 0.0863138
111 4 0.76641 0.218455 0.134326
112 4 0.823381 0.145334 0.0515479
113 1 0.349054 0.619677 0.254341
114 2 0.250653 0.603727 0.242033
115 3 0.230343 0.627283 0.198836
116 3 0.223981 0.551195 0.268103
117 2 0.404137 0.674376 0.217736
118 3 0.479883 0.666342 0.236239
119 3 0.375689 0.673244 0.175532
120 1 0.383984 0.577462 0.30942
121 2 0.317638 0.546462 0.357901
122 4 0.355202 0.543946 0.410601
123 4 0.228973 0.521654 0.343342
124 2 0.489845 0.571603 0.321619
125 4 0.514401 0.524076 0.368522
126 4 0.550181 0.609281 0.285565
127 1 0.415391 0.84903 0.49497
128 2 0.512176 0.850632 0.501135
129 3 0.53505 0.88149 0.541768
130 3 0.553767 0.825942 0.458859
131 2 0.356679 0.874837 0.543702
132 3 0.28342 0.881364 0.532488
133 3 0.400031 0.896141 0.581501
134 1 0.370876 0.814441 0.439791
135 2 0.425459 0.806184 0.384001
136 4 0.37889 0.79024 0.333803
137 4 0.51952 0.815226 0.386294
138 2 0.264385 0.798397 0.43662
139 4 0.230513 0.760387 0.38867
140 4 0.209459 0.82147 0.481969
141 1 0.149213 0.86201 0.246429
142 2 0.247657 0.866111 0.263105
143 3 0.252061 0.827542 0.302431
144 3 0.291594 0.878609 0.224121
145 2 0.0816767 0.816121 0.28191
146 3 0.00882089 0.831826 0.27038
147 3 0.114989 0.803626 0.326385
148 1 0.118529 0.903389 0.190565
149 2 0.179961 0.908339 0.138157
150 4 0.134479 0.916881 0.0875096
151 4 0.271766 0.893791 0.149031
152 2 0.0110379 0.930632 0.180731
153 4 0.995362 0.978434 0.133201
154 4 0.951721 0.902687 0.219616
155 1 0.0853022 0.644613 0.00315064
156 2 0.99144 0.606213 0.00452255
157 3 0.967164 0.580853 0.962765
158 3 0.985542 0.591275 0.0509018
159 2 0.134558 0.638941 0.948724
160 3 0.198763 0.678937 0.954968
161 3 0.0869168 0.62713 0.913564
162 1 0.128609 0.676805 0.0586081
163 2 0.069461 0.693103 0.113353
164 4 0.113549 0.67714 0.163897
165 4 0.979956 0.720848 0.107563
166 2 0.232945 0.692343 0.0674488
167 4 0.269933 0.696786 0.121057
168 4 0.288558 0.681665 0.0215738
169 1 0.844441 0.625357 0.264332
170 2 0.74207 0.636229 0.253367
171 3 0.727234 0.651942 0.207157
172 3 0.712507 0.60759 0.288
173 2 0.907575 0.665834 0.22305
174 3 0.979506 0.637178 0.230361
175 3 0.867895 0.664046 0.181393
176 1 0.884082 0.577794 0.314414
177 2 0.815888 0.533445 0.357501
178 4 0.841578 0.541649 0.41397
179 4 0.740311 0.488539 0.340955
180 2 0.988042 0.567805 0.328384
181 4 0.0158463 0.53562 0.380545
182 4 0.0541736 0.592285 0.290521
183 1 0.902698 0.860287 0.486113
184 2 0.00131254 0.852867 0.502264
185 3 0.0122222 0.893238 0.540861
186 3 0.0358295 0.793577 0.477143
187 2 0.8429 0.911463 0.523516
188 3 0.771264 0.908584 0.510341
189 3 0.880143 0.920213 0.565041
190 1 0.865691 0.818525 0.432023
191 2 0.934006 0.779734 0.388451
192 4 0.899933 0.768736 0.333651
193 4 0.0201587 0.75968 0.406481
194 2 0.758982 0.80956 0.414323
195 4 0.727881 0.765739 0.368772
196 4 0.701217 0.852168 0.451446
197 1 0.676658 0.885791 0.247756
198 2 0.767181 0.853401 0.254396
199 3 0.787809 0.847954 0.300578
200 3 0.803357 0.853953 0.209566
201 2 0.627602 0.90328 0.299402
202 3 0.553193 0.930237 0.287144
203 3 0.669694 0.894464 0.338077
204 1 0.632255 0.905602 0.187426
205 2 0.693303 0.923398 0.137172
206 4 0.647983 0.949597 0.0879218
207 4 0.786777 0.906697 0.142151
208 2 0.524429 0.910937 0.183106
209 4 0.491363 0.904643 0.127978
210 4 0.475041 0.919553 0.231304
211 1 0.584314 0.611689 0.0138765
212 2 0.489226 0.62091 0.999802
213 3 0.463774 0.586341 0.960185
214 3 0.449548 0.666024 0.0333691
215 2 0.652339 0.573513 0.975655
216 3 0.720999 0.56558 0.998698
217 3 0.620252 0.548022 0.937291
218 1 0.621151 0.648023 0.0707897
219 2 0.555673 0.665191 0.121993
220 4 0.590798 0.670567 0.176566
221 4 0.465421 0.674608 0.106525
222 2 0.723681 0.676354 0.0805893
223 4 0.74652 0.729693 0.127295
224 4 0.786003 0.649075 0.0426832
225 1 0.346416 0.134832 0.769989
226 2 0.247013 0.114863 0.75811
227 3 0.225273 0.164456 0.729216
228 3 0.212731 0.0766924 0.791616
229 2 0.395549 0.192186 0.729411
230 3 0.465072 0.207533 0.74677
231 3 0.340175 0.239944 0.718712
232 1 0.394842 0.0981368 0.821362
233 2 0.339576 0.0530496 0.868236
234 4 0.385301 0.0415368 0.921798
235 4 0.250865 0.0320396 0.860099
236 2 0.505358 0.107853 0.827022
237 4 0.545537 0.0643097 0.870063
238 4 0.551465 0.161251 0.791735
239 1 0.400582 0.378033 0.98714
240 2 0.497759 0.387592 0.999343
241 3 0.508151 0.415901 0.0430529
242 3 0.537863 0.357657 0.963434
243 2 0.334288 0.397489 0.0305122
244 3 0.257563 0.380745 0.0148022
245 3 0.366555 0.411476 0.0729297
246 1 0.364918 0.34855 0.927811
247 2 0.431218 0.341734 0.878393
248 4 0.392923 0.323956 0.826647
249 4 0.526586 0.357638 0.883491
250 2 0.259531 0.327176 0.920025
251 4 0.237737 0.288532 0.868869
252 4 0.190148 0.3416 0.955695
253 1 0.139038 0.387302 0.740293
254 2 0.230378 0.343136 0.738215
255 3 0.251867 0.3202 0.782026
256 3 0.265538 0.385986 0.708285
257 2 0.0856294 0.371034 0.791365
258 3 0.022822 0.409347 0.792708
259 3 0.120751 0.321239 0.819923
260 1 0.0999436 0.441908 0.692317
261 2 0.1699 0.465384 0.643685
262 4 0.157013 0.42825 0.591347
263 4 0.238096 0.524124 0.655309
264 2 0.993926 0.462039 0.681707
265 4 0.969443 0.482871 0.626496
266 4 0.935146 0.451865 0.724666
267 1 0.0920476 0.112859 0.522693
268 2 0.993197 0.0921466 0.521341
269 3 0.970913 0.068122 0.479819
270 3 0.961771 0.133707 0.555392
271 2 0.158409 0.0818359 0.482708
272 3 0.233111 0.112521 0.485227
273 3 0.121914 0.0567091 0.444562
274 1 0.134797 0.166379 0.572385
275 2 0.0659676 0.209785 0.615527
276 4 0.0769148 0.185582 0.670986
277 4 0.00358002 0.267246 0.594907
278 2 0.239513 0.172433 0.587481
279 4 0.260212 0.208019 0.640297
280 4 0.302794 0.154308 0.546558
281 1 0.859267 0.108236 0.768882
282 2 0.7864 0.175644 0.771552
283 3 0.780684 0.203451 0.731322
284 3 0.764535 0.193796 0.814169
285 2 0.901743 0.0843377 0.715284
286 3 0.9672 0.0423786 0.720134
287 3 0.880913 0.126388 0.681202
288 1 0.895653 0.0715016 0.825789
289 2 0.832698 0.0651299 0.878601
290 4 0.87061 0.0412388 0.930811
291 4 0.741516 0.07847 0.869463
292 2 0.000987678 0.0483162 0.828703
293 4 0.0383373 0.0504704 0.883026
294 4 0.0440554 0.0259188 0.780579
295 1 0.885905 0.392101 0.98364
296 2 0.981385 0.380322 0.00466057
297 3 0.993581 0.410011 0.0431933
298 3 0.0190378 0.335849 0.975972
299 2 0.822083 0.441959 0.0198889
300 3 0.745292 0.420138 0.0132512
301 3 0.860968 0.455097 0.0613252
302 1 0.853523 0.344883 0.929946
303 2 0.923177 0.303406 0.885563
304 4 0.892357 0.28294 0.832857
305 4 0.0130174 0.298795 0.902578
306 2 0.749238 0.333001 0.91694
307 4 0.722671 0.289687 0.86779
308 4 0.68707 0.369526 0.952627
309 1 0.62872 0.406862 0.734242
310 2 0.725821 0.412703 0.753615
311 3 0.726375 0.405196 0.800136
312 3 0.771545 0.434066 0.717819
313 2 0.557921 0.373091 0.771277
314 3 0.488529 0.384108 0.75018
315 3 0.58499 0.362311 0.813092
316 1 0.600242 0.430126 0.673864
317 2 0.671734 0.431849 0.623197
318 4 0.639296 0.423527 0.567516
319 4 0.761149 0.438475 0.635675
320 2 0.501263 0.459612 0.657854
321 4 0.491644 0.502233 0.606626
322 4 0.430984 0.445854 0.694241
323 1 0.611144 0.117947 0.519351
324 2 0.51397 0.0932318 0.516098
325 3 0.495078 0.051237 0.476114
326 3 0.478219 0.111365 0.554235
327 2 0.672869 0.093133 0.474086
328 3 0.747253 0.12295 0.486637
329 3 0.636829 0.0600741 0.439872
330 1 0.645479 0.170113 0.570677
331 2 0.571401 0.211971 0.611279
332 4 0.579611 0.194293 0.66772
333 4 0.502976 0.254487 0.5839
334 2 0.749589 0.184789 0.585836
335 4 0.772645 0.206783 0.640985
336 4 0.81374 0.171069 0.543768
337 1 0.334131 0.61557 0.763676
338 2 0.234279 0.641915 0.758103
339 3 0.218326 0.647945 0.713327
340 3 0.204057 0.609755 0.794211
341 2 0.390209 0.618906 0.712464
342 3 0.464117 0.597532 0.71565
343 3 0.3562 0.662751 0.683593
344 1 0.379082 0.583139 0.817582
345 2 0.314147 0.532335 0.862215
346 4 0.338185 0.550799 0.916142
347 4 0.240842 0.483136 0.844995
348 2 0.483534 0.598359 0.827776
349 4 0.510186 0.601289 0.884178
350 4 0.537695 0.602691 0.781269
351 1 0.409336 0.8636 0.98463
352 2 0.507256 0.85375 0.00329939
353 3 0.524745 0.882896 0.0446673
354 3 0.543595 0.825619 0.969725
355 2 0.349957 0.907466 0.0254329
356 3 0.274806 0.90252 0.0105544
357 3 0.380381 0.909935 0.0681044
358 1 0.373794 0.831851 0.926846
359 2 0.436996 0.821925 0.877267
360 4 0.395201 0.819325 0.823869
361 4 0.530742 0.828334 0.889892
362 2 0.264977 0.809077 0.918519
363 4 0.24389 0.76822 0.868223
364 4 0.205183 0.827487 0.95924
365 1 0.166119 0.865778 0.737258
366 2 0.261541 0.876769 0.749945
367 3 0.278324 0.832341 0.786194
368 3 0.304846 0.904894 0.714833
369 2 0.104053 0.818679 0.779687
370 3 0.0305956 0.824506 0.762359
371 3 0.141967 0.758397 0.793681
372 1 0.123743 0.902384 0.682831
373 2 0.185414 0.930288 0.630954
374 4 0.134548 0.93703 0.580789
375 4 0.277024 0.93796 0.637979
376 2 0.0179219 0.915419 0.673718
377 4 0.993139 0.967551 0.629045
378 4 0.958414 0.868766 0.705078
379 1 0.091386 0.596865 0.517848
380 2 0.993089 0.591743 0.502264
381 3 0.987101 0.5303 0.476609
382 3 0.947546 0.618576 0.535382
383 2 0.155903 0.547344 0.480833
384 3 0.225984 0.57042 0.493201
385 3 0.118881 0.543346 0.43751
386 1 0.123255 0.653222 0.567323
387 2 0.0558331 0.699284 0.61083
388 4 0.0814236 0.697421 0.666951
389 4 0.983579 0.744198 0.58807
390 2 0.227319 0.668621 0.58181
391 4 0.247562 0.724526 0.625996
392 4 0.292098 0.628394 0.549657
393 1 0.836874 0.644999 0.763634
394 2 0.738583 0.636915 0.746347
395 3 0.732493 0.660705 0.70281
396 3 0.708138 0.584388 0.771996
397 2 0.897026 0.69715 0.729182
398 3 0.974055 0.686877 0.748025
399 3 0.855219 0.729077 0.696712
400 1 0.877308 0.59817 0.816067
401 2 0.806919 0.565435 0.860685
402 4 0.839577 0.555324 0.915033
403 4 0.716255 0.553835 0.845918
404 2 0.980955 0.58075 0.827734
405 4 0.00422031 0.523913 0.870253
406 4 0.0440488 0.615121 0.791693
407 1 0.919077 0.857058 0.990901
408 2 0.0176287 0.879431 0.992459
409 3 0.0349054 0.918809 0.0311941
410 3 0.0345435 0.890446 0.94924
411 2 0.859237 0.862871 0.0421974
412 3 0.787769 0.855384 0.0312247
413 3 0.895078 0.908577 0.0702387
414 1 0.876005 0.832572 0.934204
415 2 0.938955 0.817348 0.881954
416 4 0.908095 0.835088 0.828061
417 4 0.0201771 0.775956 0.894334
418 2 0.767325 0.822425 0.921054
419 4 0.747556 0.795586 0.867668
420 4 0.711594 0.834905 0.965542
421 1 0.66643 0.914234 0.739425
422 2 0.764983 0.897656 0.747367
423 3 0.784138 0.874054 0.790882
424 3 0.81224 0.917007 0.710066
425 2 0.601743 0.897479 0.784801
426 3 0.535067 0.931488 0.775301
427 3 0.632602 0.87179 0.824846
428 1 0.632124 0.947179 0.682225
429 2 0.6963 0.953605 0.630191
430 4 0.668532 0.912274 0.580473
431 4 0.775108 0.999768 0.63508
432 2 0.527102 0.972815 0.671999
433 4 0.501983 0.00321098 0.620024
434 4 0.470672 0.971975 0.716917
435 1 0.59319 0.599592 0.509359
436 2 0.492646 0.594849 0.499873
437 3 0.476456 0.553992 0.46255
438 3 0.455961 0.64729 0.520929
439 2 0.657319 0.546171 0.477559
440 3 0.73117 0.553969 0.49633
441 3 0.62184 0.528672 0.437012
442 1 0.633707 0.652658 0.558821
443 2 0.570167 0.69268 0.606362
444 4 0.614413 0.709913 0.656354
445 4 0.486004 0.721509 0.589466
446 2 0.739356 0.659387 0.571362
447 4 0.765645 0.704237 0.619849
448 4 0.806871 0.620386 0.54083
ITEM: TIMESTEP
2000
ITEM: NUMBER OF ATOMS
448
ITEM: BOX BOUNDS xy xz yz pp pp pp