LAMMPS data file via write_data, version 15 Apr 2020, timestep = 80000

448 atoms
4 atom types

9.5876328665706723e-02 1.3783323671333918e+01 xlo xhi
3.0836589234887590e-01 1.2966434107650986e+01 ylo yhi
-3.7225310689163393e-01 2.3052163465190922e+01 zlo zhi
3.3770890573418506e+00 4.5175326317508402e-01 -4.9921820340037009e+00 xy xz yz

Masses

1 12.0107
2 14.0067
3 1.00794
4 15.9994

Atoms # full

1 1 1 -8.2056286706429539e-03 5.6085964908326176e+00 8.7884067149806233e-01 4.9634276995257185e+00 0 0 0
2 1 2 7.7212730537019880e-04 4.2660861104359444e+00 7.0053313824986119e-01 4.7163681775986603e+00 0 0 0
3 1 3 1.3849987960910262e-01 3.8598406047385470e+00 1.0882041354794876e+00 3.8337707580339986e+00 0 0 0
4 1 3 1.4784906506310422e-01 3.7421409945980200e+00 3.5544759007012061e-01 5.5616412292777229e+00 0 0 0
5 1 2 1.6342800997823141e-02 6.3810688457395681e+00 1.3644928704699875e+00 3.9503179243329134e+00 0 0 0
8 1 1 3.1455394440912859e-02 6.1161608091676936e+00 5.7359858658045826e-01 6.2885896589276955e+00 0 0 0
9 1 2 2.2743106781888930e-01 5.2979356955272801e+00 -9.6724012380297042e-02 7.3114595530984445e+00 0 0 0
12 1 2 2.3593401948667528e-01 7.5673082058997236e+00 7.2305434638740729e-01 6.5037320178857030e+00 0 0 0
13 1 4 -2.6797102977467907e-01 7.9907689652079865e+00 4.6377287599526484e-01 7.6861769753985385e+00 0 0 0
43 1 1 -5.9043871950703875e-03 2.4480431384803509e+00 -2.9167090240574596e+00 2.2564212837292505e+01 0 0 -1
44 1 2 -6.7104391586398082e-03 1.1300836613225955e+00 -2.5486644906766043e+00 2.2507611050643497e+01 1 0 -1
45 1 3 1.3838773847223326e-01 1.4546623236476060e+01 -2.4549216630819801e+00 2.1526874049090662e+01 0 0 0
46 1 3 1.4734200593279340e-01 1.3847416897058583e+01 2.2026376828815453e+00 -2.1058378212663320e-02 0 0 0
47 1 2 1.1123258058538997e-02 3.2256949983108085e+00 -2.8660372857554259e+00 2.1404651988747595e+01 0 0 0
48 1 3 1.5300561537102508e-01 4.2751547512511312e+00 -3.1205696207493512e+00 2.1659946095711206e+01 0 0 0
49 1 3 1.4087641272025828e-01 2.7700922501282004e+00 -2.4932489206169661e+00 2.0600609616368114e+01 0 0 0
50 1 1 2.6474278191658606e-02 2.5730540335525141e+00 1.7406963770291575e+00 4.2161480623548575e-01 0 0 0
51 1 2 2.2729597798703505e-01 1.6525446170400200e+00 1.2641725161062778e+00 1.5171889031619801e+00 0 0 0
52 1 4 -2.5970348028764345e-01 2.2107026064306683e+00 7.5882635791571562e-01 2.5463780122603179e+00 0 0 0
53 1 4 -2.9715602879694342e-01 1.4084568965620155e+01 1.5331058519997609e+00 1.4605029291327523e+00 0 0 0
56 1 4 -2.9373591845955144e-01 5.2686701382294743e+00 -3.3289368415312195e+00 2.3007851242713347e+01 0 0 -1
57 1 1 -4.1095928085806074e-03 1.2439651175068335e+01 1.2718257179191228e+00 5.0323972251724527e+00 0 0 0
58 1 2 9.9020961727896081e-03 1.1065508422765442e+01 1.2103037034559141e+00 4.7992886112850481e+00 0 0 0
59 1 3 1.4554128818330053e-01 1.0872902320592303e+01 1.2621589137199281e+00 3.7571154252197871e+00 0 0 0
60 1 3 1.5854327078765013e-01 1.0443485938088276e+01 1.0884526911689105e+00 5.6823140742794962e+00 0 0 0
61 1 2 1.4174818073861385e-02 1.3223751409948337e+01 1.5056396374373038e+00 3.9149686059669717e+00 0 0 0
63 1 3 1.4922566323830277e-01 1.2597778283929001e+01 1.8057487977560096e+00 3.0523306635667788e+00 0 0 0
64 1 1 3.8028745101400176e-02 1.2944076745720817e+01 9.0881229944660658e-01 6.3420441947497173e+00 0 0 0
65 1 2 2.3463364441064546e-01 1.2043059744557281e+01 7.5455995989337654e-01 7.4995779359096355e+00 0 0 0
67 1 4 -2.8917911186225054e-01 1.0772258223725887e+01 8.9744277087066715e-01 7.2861292423315440e+00 0 0 0
68 1 2 2.3201620029534367e-01 1.4424281470129010e+01 8.2179436320447641e-01 6.5053701510961526e+00 0 0 0
69 1 4 -2.7556939148004184e-01 1.2227867828109682e+00 5.8931713980091005e-01 7.6802342611542791e+00 0 0 0
99 1 1 -1.4543928681335253e-02 9.3519257948628294e+00 -3.0094341162675606e+00 2.2590397215220392e+01 0 0 -1
100 1 2 4.9392994612475274e-03 7.9777811517370267e+00 -3.2558673614900195e+00 2.2277561442568640e+01 0 0 -1
101 1 3 1.3643394432647488e-01 7.8886434064488355e+00 -3.0013990219818680e+00 2.1281565704904974e+01 0 0 0
102 1 3 1.5171318129254807e-01 7.0083884022683520e+00 1.3769125144675460e+00 -2.7109248662171970e-01 0 0 0
103 1 2 1.7480171255279290e-02 1.0179824181018860e+01 -2.5927105029740503e+00 2.1559319588787503e+01 0 0 0
104 1 3 1.5475019729037670e-01 1.1007975457786991e+01 -2.0832945673723540e+00 2.1975654102779227e+01 0 0 0
105 1 3 1.4704578390900902e-01 9.6419249175811608e+00 -2.2841843248285345e+00 2.0726562848140968e+01 0 0 0
106 1 1 2.8155266304711223e-02 9.3885832087355556e+00 1.8675003664446190e+00 4.9831299729983303e-01 0 0 0
107 1 2 2.3290426906015388e-01 8.4575787537176019e+00 1.4348192174810612e+00 1.6393778928086769e+00 0 0 0
108 1 4 -2.5357668282207857e-01 8.9709471982268010e+00 1.4136448050755723e+00 2.8124898746741782e+00 0 0 0
109 1 4 -2.9625916024707954e-01 7.2666766988806248e+00 1.0465786103601782e+00 1.3471282470185308e+00 0 0 0
110 1 2 2.3666780557164382e-01 1.0782030229449438e+01 2.1343748625600125e+00 7.8835603319771330e-01 0 0 0
112 1 4 -2.8832355507588114e-01 1.1546784743539181e+01 2.6505139812367404e+00 -1.1572562198949399e-01 0 0 0
225 1 1 -6.2931468879639206e-03 5.7857310944827676e+00 -2.0509738531936330e+00 1.6528055110356622e+01 0 0 0
226 1 2 1.0704160924472551e-02 4.3848266108593794e+00 -1.9490214226128915e+00 1.6356797808515516e+01 0 0 0
227 1 3 1.4575337082480111e-01 4.0380319721470661e+00 -1.7415502554610764e+00 1.5444373004259356e+01 0 0 0
228 1 3 1.4853106087250395e-01 3.8353418531602816e+00 -1.9651589174303252e+00 1.7202948993637236e+01 0 0 0
229 1 2 7.7769892908959165e-03 6.5961744624781922e+00 -1.8093796064961127e+00 1.5432040659037552e+01 0 0 0
230 1 3 1.5296085589074554e-01 7.6293724820436166e+00 -1.8479437242576635e+00 1.5743006888988692e+01 0 0 0
231 1 3 1.4418738940720230e-01 6.0892820048719516e+00 -1.4858089294007448e+00 1.4562110846577529e+01 0 0 0
232 1 1 3.4387836156638873e-02 6.2971439624660457e+00 -2.4049395907631661e+00 1.7794435055877209e+01 0 0 0
233 1 2 2.3293386224970017e-01 5.4277647107649889e+00 -2.8617884386773591e+00 1.8887173016773303e+01 0 0 0
234 1 4 -2.4228118147662234e-01 5.9578407103589317e+00 -3.3688515738666984e+00 1.9959333236252348e+01 0 0 0
235 1 4 -2.8891017802426511e-01 4.1390178116779239e+00 -2.8075239343201908e+00 1.8739217142586451e+01 0 0 0
236 1 2 2.3630658083100020e-01 7.8221150925633136e+00 -2.4212028313643321e+00 1.7954104056499045e+01 0 0 0
237 1 4 -2.5539228418752968e-01 8.1520280065482549e+00 -2.6381241944496545e+00 1.9159638935327862e+01 0 0 0
238 1 4 -2.9246301755939091e-01 8.6309573149204315e+00 -2.0698377087021300e+00 1.7030230993584510e+01 0 0 0
267 1 1 -5.9136109072884142e-03 2.3377128376494567e+00 -3.2957209954689937e-01 1.0749896529816674e+01 0 0 0
268 1 2 5.7667886364527569e-03 9.6820041638307364e-01 -2.3951622902463665e-01 1.0573669743890289e+01 1 0 0
269 1 3 1.3872153203290780e-01 7.8287564180095837e-01 -8.5120115690452636e-02 9.5690511936603571e+00 1 0 0
270 1 3 1.5581246812530566e-01 1.4092220243383121e+01 -5.0611654262938743e-01 1.1407279238433896e+01 0 0 0
274 1 1 3.9751463546804908e-02 2.8301689579654763e+00 -7.2974213107188457e-01 1.2032671391462213e+01 0 0 0
275 1 2 2.4094416409080666e-01 1.9545458903558788e+00 -1.1998062273362438e+00 1.3150690770140669e+01 0 0 0
276 1 4 -2.5042138027327326e-01 2.4518154757937509e+00 -1.5911336556192950e+00 1.4288428343555273e+01 0 0 0
277 1 4 -2.8991205097188977e-01 1.4366567415402379e+01 -1.0999427600955485e+00 1.2962105320442097e+01 0 0 0
278 1 2 2.3721350666679081e-01 4.3138407667149865e+00 -7.3588862480089934e-01 1.2261397655798227e+01 0 0 0
279 1 4 -2.6605456902396424e-01 4.5964228112336309e+00 -1.0575436188939134e+00 1.3472771722125371e+01 0 0 0
281 1 1 -1.7338373885635618e-02 1.2546544294304791e+01 -1.7947793184175351e+00 1.6558247405530686e+01 0 0 0
282 1 2 1.7319998356573288e-02 1.1166803588844328e+01 -1.9414055610761354e+00 1.6288011493089229e+01 0 0 0
283 1 3 1.4421876118524277e-01 1.1012047482212463e+01 -1.4283173848173925e+00 1.5407518735461592e+01 0 0 0
284 1 3 1.5034705844562474e-01 1.0708313731829600e+01 -1.9930410118889297e+00 1.7243538971281708e+01 0 0 0
287 1 3 1.5024777181033819e-01 1.3002083803781534e+01 -1.3392708222669429e+00 1.4565574730061449e+01 0 0 0
288 1 1 2.3413141169808936e-02 1.3035968352090297e+01 -1.9664044466794310e+00 1.7889651966222356e+01 0 0 0
289 1 2 2.2901569702234340e-01 1.2106627912396123e+01 -2.1899977284444159e+00 1.9083896403973061e+01 0 0 0
290 1 4 -2.4300335833027192e-01 1.2690912646861200e+01 -2.2901800662698770e+00 2.0227628619925841e+01 0 0 0
291 1 4 -2.9115116954195397e-01 1.0847721336969425e+01 -2.2583393503470583e+00 1.8898127042193732e+01 0 0 0
292 1 2 2.3445528273653687e-01 1.4456016427506631e+01 -1.9552113844159771e+00 1.8215088755612193e+01 0 0 0
293 1 4 -2.5761774259302783e-01 1.1198420927146802e+00 -2.2475884589240511e+00 1.9418572576602656e+01 0 0 0
323 1 1 -5.4884886814803927e-03 9.2668172246876370e+00 -3.4457873841843800e-01 1.0786722869386654e+01 0 0 0
324 1 2 3.3123165338669117e-03 7.9048769580661880e+00 -3.9309262570857317e-01 1.0471246911746293e+01 0 0 0
325 1 3 1.4073380385099774e-01 7.6965334134428822e+00 -2.0839155718116609e-01 9.5011355354149529e+00 0 0 0
326 1 3 1.5506792311814732e-01 7.3618227709637916e+00 -9.0487201119535898e-01 1.1278034847037032e+01 0 0 0
330 1 1 3.5183795539285918e-02 9.7240957536348986e+00 -7.0806075319685990e-01 1.2094618210607926e+01 0 0 0
331 1 2 2.3549797231723019e-01 8.8302031001788581e+00 -1.2355267585656606e+00 1.3161109092849422e+01 0 0 0
332 1 4 -2.6609135396144679e-01 9.3562087096698772e+00 -1.4569796413648375e+00 1.4281270489856256e+01 0 0 0
333 1 4 -2.8943054823332132e-01 7.5746667151997329e+00 -1.4122556638496504e+00 1.2818535011539836e+01 0 0 0
334 1 2 2.3184541955436314e-01 1.1191066878544660e+01 -7.0679232254271462e-01 1.2365022081944076e+01 0 0 0
335 1 4 -2.7737914231853072e-01 1.1554409558725869e+01 -1.0653811005027847e+00 1.3549355327905245e+01 0 0 0
336 1 4 -2.9548803679233043e-01 1.2053306031204880e+01 -4.3255473394008681e-01 1.1435150888630467e+01 0 0 0
329 1 3 1.4575365519726655e-01 9.6734743238958494e+00 4.1023177961962487e-01 8.9479391974348577e+00 0 0 0
11 1 4 -2.9908806586571890e-01 4.0337134755443476e+00 -2.4551037931241693e-01 7.1583420642749287e+00 0 0 0
271 1 2 1.2676705782769009e-02 3.2197526165819941e+00 -7.5804599526174909e-02 9.7154586614488849e+00 0 0 0
327 1 2 1.7549111869409682e-02 1.0180973860979062e+01 -1.6750837627815152e-02 9.7681666545460999e+00 0 0 0
7 1 3 1.4313040272261401e-01 5.8197748486734033e+00 1.5032534478462229e+00 3.0636650727989294e+00 0 0 0
62 1 3 1.5439950509549630e-01 1.4258765217775990e+01 1.3230682418745585e+00 4.0747504556104852e+00 0 0 0
111 1 4 -2.7476807275488008e-01 1.1211131504483323e+01 1.8256091682216877e+00 1.9829851279704220e+00 0 0 0
280 1 4 -2.9019059689362542e-01 5.1720481265291234e+00 -4.1659890343067429e-01 1.1347383657454630e+01 0 0 0
285 1 2 1.4785515112183917e-02 1.3405862342333885e+01 -1.5378498010797137e+00 1.5488484356907280e+01 0 0 0
286 1 3 1.5593822172206162e-01 1.4432280650659154e+01 -1.4223576761192778e+00 1.5931122888425786e+01 0 0 0
294 1 4 -2.8822402693802940e-01 1.6707905797536142e+00 -1.7330108062480174e+00 1.7287618209056141e+01 0 0 0
328 1 3 1.5756324914705228e-01 1.1189165563295008e+01 -2.3416868963239423e-01 1.0022725197445503e+01 0 0 0
6 1 3 1.5943356714692808e-01 7.3618999063736981e+00 1.6276159228377276e+00 4.2565609122528176e+00 0 0 0
10 1 4 -2.6528240996995534e-01 5.9119461927689843e+00 -4.9496227979977414e-01 8.4125351965236330e+00 0 0 0
66 1 4 -2.6806883489956979e-01 1.2527090852394494e+01 4.9956400034881354e-01 8.6639762679575583e+00 0 0 0
70 1 4 -2.9676365271456256e-01 1.4564563389320171e+00 9.8011833657989533e-01 5.4479049877904284e+00 0 0 0
272 1 3 1.5412608605101200e-01 4.2791746686028107e+00 -3.7416749419186757e-01 9.8812761136650966e+00 0 0 0
54 1 2 2.2702740592932361e-01 4.0166675832410075e+00 1.5876399097733622e+00 5.9007945710736409e-01 0 0 0
273 1 3 1.4532153534784248e-01 2.7007474173506534e+00 1.4434615080485358e-01 8.7653914170011760e+00 0 0 0
14 1 4 -2.8109664063450468e-01 8.3780719494406259e+00 1.0264559510571756e+00 5.5351467402981482e+00 0 0 0
55 1 4 -2.7541112436862453e-01 4.4605448728228012e+00 1.3939898308504537e+00 1.8004101631001799e+00 0 0 0
19 1 2 1.4485781350325959e-02 5.7925545969671077e+00 2.2343166606154261e+00 1.2693104307783052e+01 0 0 0
20 1 3 1.5333422142415126e-01 4.8095420684704848e+00 2.0373619491579382e+00 1.2301129792720225e+01 0 0 0
21 1 3 1.4757879804708063e-01 6.2981885747270532e+00 2.0675463324316952e+00 1.3566887312948182e+01 0 0 0
22 1 1 2.8739695973835980e-02 6.1117986473142611e+00 2.9554340154748613e+00 1.0357063283273238e+01 0 0 0
23 1 2 2.3040210988069984e-01 7.0462604452406428e+00 3.1489527910147594e+00 9.2441911047298699e+00 0 0 0
26 1 2 2.2901528143736793e-01 4.6531564853544536e+00 2.9927254957107423e+00 1.0112966631524882e+01 0 0 0
27 1 4 -2.7892773175994440e-01 4.2804865119446038e+00 3.4908466704660137e+00 8.9619521417702739e+00 0 0 0
28 1 4 -2.8818879955156157e-01 3.8112714380426027e+00 2.6090060598620854e+00 1.1024456431264992e+01 0 0 0
29 1 1 -1.0739719359781220e-02 3.0518238771841113e+00 4.1699664516139361e+00 5.9166014425257822e+00 0 0 0
30 1 2 1.1328551721913195e-02 4.4334824286015646e+00 4.2305287235282467e+00 6.1402107519708622e+00 0 0 0
31 1 3 1.4450125796126356e-01 4.6062002120744037e+00 4.1516253443343274e+00 7.2128620003033586e+00 0 0 0
33 1 2 2.0527384004499803e-02 2.1594975287910625e+00 3.8944176607182204e+00 6.9773214775406300e+00 0 0 0
34 1 3 1.5444123162777501e-01 1.4946173631471282e+01 3.7114680869733681e+00 6.6589455923908965e+00 -1 0 0
35 1 3 1.4138631008865135e-01 2.8095605431147037e+00 3.3548959607029358e+00 7.6918881919195918e+00 0 0 0
36 1 1 3.0153369379296503e-02 2.5138156376622529e+00 4.4284286942728928e+00 4.6143654441568183e+00 0 0 0
37 1 2 2.2688214234730308e-01 3.3839056203679347e+00 4.5850435991733898e+00 3.4571431003559741e+00 0 0 0
38 1 4 -2.5349271139880447e-01 2.8202190175127431e+00 4.9527532861001653e+00 2.3428258690294772e+00 0 0 0
40 1 2 2.3069444430816066e-01 1.4702279217354761e+01 4.4184920190860311e+00 4.4229013834385746e+00 -1 0 0
41 1 4 -2.6946725853509457e-01 1.4342210466032752e+01 4.7095527095574941e+00 3.2060460538025204e+00 0 0 0
42 1 4 -2.8743113064240844e-01 1.3915979660597507e+01 4.2404338814750187e+00 5.4110770312794596e+00 0 0 0
71 1 1 -1.1372399655223617e-02 1.3481935629803306e+01 2.4924982967943481e+00 1.1806929543826788e+01 0 0 0
72 1 2 5.0582452321406290e-03 1.4827742370884375e+01 2.6018122622535338e+00 1.2089697168695217e+01 -1 0 0
73 1 3 1.3921691605852599e-01 1.5082431784696977e+01 2.3818466082694512e+00 1.3086761077069998e+01 -1 0 0
74 1 3 1.4999286501397424e-01 1.7055288364776391e+00 2.5569170096920528e+00 1.1197542580271637e+01 0 0 0
78 1 1 2.8735534269369478e-02 1.2994838503710994e+01 2.8227689619019856e+00 1.0495235891641364e+01 0 0 0
79 1 2 2.3099915366681592e-01 1.3861195350736430e+01 3.1299900452067315e+00 9.3564734164224515e+00 0 0 0
80 1 4 -2.4783776748071143e-01 1.3439198137055962e+01 3.5805260619359265e+00 8.2240994625767616e+00 0 0 0
81 1 4 -2.7540392447746803e-01 1.5161683528162673e+01 2.9145157091034020e+00 9.5125087842386904e+00 -1 0 0
82 1 2 2.3766399154207687e-01 1.1531921058859657e+01 2.8603925403207922e+00 1.0136438105537282e+01 0 0 0
83 1 4 -2.7449789974358663e-01 1.1236123296597723e+01 3.3285000595192469e+00 8.9796583943551216e+00 0 0 0
85 1 1 -1.3283043892440489e-02 9.8745452230166091e+00 4.0585380161557314e+00 6.0478074332352154e+00 0 0 0
86 1 2 1.5375603106047301e-02 1.1241339859045755e+01 4.2627309281609884e+00 6.2272189825694602e+00 0 0 0
87 1 3 1.4430585113024866e-01 1.1423604255504454e+01 4.0903593379777066e+00 7.2109692750844019e+00 0 0 0
88 1 3 1.5941724046321007e-01 1.1776025907103183e+01 4.6980159035763034e+00 5.3650762200962401e+00 0 0 0
89 1 2 2.4608073554218561e-02 9.0805385561427236e+00 3.6159929069734087e+00 7.0850565955913503e+00 0 0 0
90 1 3 1.5949217037776020e-01 8.0420780374421668e+00 3.6788758547064946e+00 6.7656225281769240e+00 0 0 0
91 1 3 1.5145033890458934e-01 9.6289305623501669e+00 3.5787213450122417e+00 8.0133114450465506e+00 0 0 0
92 1 1 2.0444419093699210e-02 9.3976760269772566e+00 4.3055347176585936e+00 4.6901829269554245e+00 0 0 0
93 1 2 2.2035543315912334e-01 1.0335194840636088e+01 4.5648791019809360e+00 3.6160874546667756e+00 0 0 0
94 1 4 -2.5103728029644684e-01 9.9518371376036185e+00 4.4414613671327832e+00 2.3744437103379679e+00 0 0 0
95 1 4 -2.8391559168833708e-01 1.1597329712592352e+01 4.8509258277054972e+00 3.7656964961035690e+00 0 0 0
96 1 2 2.2986443673868956e-01 7.9712748253564047e+00 4.0612235849337299e+00 4.3734528934017529e+00 0 0 0
97 1 4 -2.8233753982939314e-01 7.6023229129631602e+00 4.1518766640004428e+00 3.1489970374133498e+00 0 0 0
98 1 4 -2.9358219392384860e-01 7.1399511303070762e+00 3.8155934792895891e+00 5.3290268099635485e+00 0 0 0
241 1 3 1.3775057350657455e-01 7.8056982653280000e+00 4.6511303016066678e+00 1.3855184160426284e+00 0 0 0
243 1 2 7.7836884213522729e-03 5.5145120251526967e+00 4.3526305592102323e+00 9.7622045590230067e-01 0 0 0
244 1 3 1.4740345521345374e-01 4.5085628036270720e+00 4.4844207924380086e+00 5.3541409500148929e-01 0 0 0
250 1 2 2.2800790844530114e-01 5.0201540229403747e+00 5.5818992545727752e-02 2.1719501168798757e+01 0 0 0
252 1 4 -2.9774753863766135e-01 4.1147495645914711e+00 -1.6533420867437432e-01 2.2610633490025805e+01 0 0 0
262 1 4 -2.5844025754387434e-01 3.3361434850219416e+00 1.5629864080187170e+00 1.3929435419067719e+01 0 0 0
264 1 2 2.2563127377954417e-01 1.5155824335212321e+01 1.2419755333231772e+00 1.6024824102676035e+01 -1 0 0
265 1 4 -2.8336225525171299e-01 1.4787289380442447e+01 1.6076057109656370e+00 1.4843842198937041e+01 0 0 0
266 1 4 -3.0495615098213602e-01 1.4351126760794575e+01 8.7658835536231816e-01 1.6968727293663292e+01 0 0 0
299 1 2 1.7281239645578296e-02 1.2461223936439508e+01 5.1984676817515192e+00 1.1115903399605485e+00 0 0 0
300 1 3 1.5379060147398280e-01 1.1407538121560243e+01 5.3682823537722255e+00 7.4186567734521480e-01 0 0 0
301 1 3 1.4820710447229155e-01 1.2896292590442037e+01 5.0084269885570887e+00 2.0222027905704492e+00 0 0 0
303 1 2 2.2569734835019251e-01 1.4278839411125904e+01 5.8319111720763850e-01 2.1007757959990609e+01 0 0 0
304 1 4 -2.4650552638808249e-01 1.3755537669504136e+01 7.4249421213263833e-01 1.9816328269699230e+01 0 0 0
24 1 4 -2.5788921496352868e-01 6.5429081334115091e+00 3.1670366399915348e+00 8.0633631179637568e+00 0 0 0
15 1 1 -1.1254512560951987e-02 6.6585495156787724e+00 2.6276324492896768e+00 1.1677470081680651e+01 0 0 0
16 1 2 1.4001049086643912e-02 7.9844306151421520e+00 2.7134848428616496e+00 1.1943029660458969e+01 0 0 0
17 1 3 1.4690691556187910e-01 8.2044969886270476e+00 2.4167541055621142e+00 1.2889971035785218e+01 0 0 0
18 1 3 1.5449581707875662e-01 8.5202293617343017e+00 3.2464754952500794e+00 1.1176301547833138e+01 0 0 0
32 1 3 1.5238046545959888e-01 4.9866118992090591e+00 4.4800662428600786e+00 5.2726519362783142e+00 0 0 0
39 1 4 -2.8931378564679999e-01 4.6846819841509575e+00 4.5557470867614889e+00 3.5961641820110839e+00 0 0 0
75 1 2 1.7892758986061751e-02 1.2609469410935379e+01 2.1085759054976392e+00 1.2809233146009378e+01 0 0 0
76 1 3 1.5762131414556219e-01 1.1568015459069438e+01 2.0323303823634840e+00 1.2490116912455772e+01 0 0 0
77 1 3 1.4306231771489805e-01 1.3183423438524022e+01 1.9028239808150929e+00 1.3671988224453822e+01 0 0 0
84 1 4 -2.8753725565527705e-01 1.0655558606677257e+01 2.5068734306259111e+00 1.0996602604986599e+01 0 0 0
239 1 1 -1.0332743017036350e-02 6.4081651108847648e+00 4.6934337736634113e+00 -9.4452668212940960e-04 0 0 1
240 1 2 6.1092474746710784e-04 7.7456444126993578e+00 4.8406433821675883e+00 3.8038382173991148e-01 0 0 1
242 1 3 1.4263292992226653e-01 8.8199676376530238e+00 -1.9964540332269021e-01 2.2949992219418043e+01 0 0 0
245 1 3 1.4207565544207712e-01 6.0360084804710672e+00 4.4458901500849812e+00 1.9402430124598764e+00 0 0 0
246 1 1 2.4009759808947168e-02 6.4678628316136848e+00 -7.6424591092806970e-02 2.2028355107081264e+01 0 0 0
247 1 2 2.2608212115650733e-01 7.3739572726040725e+00 4.3216307510948404e-02 2.0906551976536331e+01 0 0 0
248 1 4 -2.6048860820981667e-01 6.9663321341652429e+00 2.5274847054142935e-01 1.9687932945820585e+01 0 0 0
249 1 4 -2.8712664652919845e-01 8.6330904541317057e+00 -2.2190902178109084e-01 2.1160932080565438e+01 0 0 0
251 1 4 -2.8285659611505731e-01 4.7245295338828406e+00 3.2246863335512277e-01 2.0506305312285839e+01 0 0 0
253 1 1 -1.1882017461222144e-02 3.4931429202636117e+00 9.0261892275457090e-01 1.7528301018239006e+01 0 0 0
254 1 2 1.1475729787422118e-03 4.8314637687029096e+00 1.0323492470429403e+00 1.7763418957286412e+01 0 0 0
255 1 3 1.4109942473465950e-01 5.1539292801258920e+00 7.1464538663653165e-01 1.8683490845200858e+01 0 0 0
256 1 3 1.5087382216467948e-01 5.3766954590755658e+00 1.5203482624479947e+00 1.7065402562904190e+01 0 0 0
257 1 2 1.8106237733588753e-02 2.6454593815109471e+00 4.8562436188448910e-01 1.8564682848590152e+01 0 0 0
258 1 3 1.5713543415449890e-01 1.5300442086638714e+01 6.8057860869159903e-01 1.8286854336530737e+01 -1 0 0
259 1 3 1.4872722597252705e-01 3.0953961672062809e+00 5.2775875294084429e-01 1.9529109224515278e+01 0 0 0
260 1 1 3.0205719189065151e-02 2.9314990596551902e+00 1.2391245721913435e+00 1.6251711513319858e+01 0 0 0
261 1 2 2.3475286917563851e-01 3.8798549843249415e+00 1.5016734804545568e+00 1.5090642764358748e+01 0 0 0
263 1 4 -2.8259594537453153e-01 5.1138840011705682e+00 1.7017406578400531e+00 1.5339247040334032e+01 0 0 0
295 1 1 -8.5382143308032760e-03 1.3289185322407931e+01 5.2417535317467205e+00 3.2428346610111625e-02 0 0 1
296 1 2 -1.4710793673513509e-03 1.4668221430732274e+01 5.0572941817516304e+00 2.6344870428976785e-01 -1 0 1
297 1 3 1.4081242254194498e-01 1.4898883289668774e+01 4.7372290689358074e+00 1.1844806726638650e+00 -1 0 0
298 1 3 1.4616517529812645e-01 1.9402699372945940e+00 1.4113592586403723e-01 2.2785048035672400e+01 0 0 0
302 1 1 2.9730100985905936e-02 1.3291216133164840e+01 4.0632261431118621e-01 2.2106357341589064e+01 0 0 0
305 1 4 -2.9606831821324875e-01 1.8525608057939014e+00 5.4362058143138103e-01 2.1170563842606963e+01 0 0 0
306 1 2 2.3553565560876796e-01 1.1857291277888018e+01 4.7270246739006705e-01 2.1750506291981484e+01 0 0 0
307 1 4 -2.6324494657823483e-01 1.1497949433803820e+01 5.1123440785874585e-01 2.0512776743738968e+01 0 0 0
308 1 4 -2.9318551576311946e-01 1.1015659894906653e+01 3.9490913473134892e-01 2.2741787466492379e+01 0 0 0
309 1 1 -8.4873364744069372e-03 1.0256198281192361e+01 9.0403073088536923e-01 1.7277717669969459e+01 0 0 0
310 1 2 -1.6877107832101862e-03 1.1613089903293389e+01 8.6901625987404518e-01 1.7580616708282598e+01 0 0 0
311 1 3 1.3846060817305506e-01 1.1887169816142697e+01 4.4027458148255771e-01 1.8495429323232177e+01 0 0 0
312 1 3 1.4636171566016840e-01 1.2224953895680567e+01 1.2620978773977458e+00 1.6750711022458248e+01 0 0 0
313 1 2 1.3115769198047703e-02 9.4502655068475310e+00 6.9456564190903425e-01 1.8373507852869945e+01 0 0 0
314 1 3 1.5019459416060571e-01 8.4609530692108219e+00 9.6136997007814262e-01 1.8176894334531543e+01 0 0 0
315 1 3 1.4407525375392879e-01 1.0012148477333429e+01 5.1218479406498929e-01 1.9276055023434690e+01 0 0 0
316 1 1 3.1519223008928232e-02 9.6852172846758755e+00 1.3373639151455081e+00 1.6017982516225793e+01 0 0 0
317 1 2 2.2959614330681710e-01 1.0617081907417003e+01 1.6387200040469767e+00 1.4933439943831708e+01 0 0 0
318 1 4 -2.6064934250345057e-01 1.0058017100398457e+01 1.8261378957825092e+00 1.3755064850707887e+01 0 0 0
319 1 4 -3.1088719914936991e-01 1.1885253321639517e+01 1.6135685795358623e+00 1.5121843904177052e+01 0 0 0
320 1 2 2.3795031850213771e-01 8.2089106582882341e+00 1.3920590669362514e+00 1.5803538827850844e+01 0 0 0
321 1 4 -2.7362828724965110e-01 7.8007930710952369e+00 1.7644672595243742e+00 1.4630116992658603e+01 0 0 0
322 1 4 -2.9381278861422472e-01 7.4513691081250997e+00 1.2613093263369755e+00 1.6819893799177102e+01 0 0 0
25 1 4 -2.9716505255773673e-01 8.2962257048364965e+00 3.3994423664168361e+00 9.4971840284591966e+00 0 0 0
155 1 1 -6.8083113054297137e-03 4.4150817143267558e+00 3.1763482814944002e+00 2.2268030073836080e+01 0 0 -1
156 1 2 4.5874431673427335e-03 3.0568598451176241e+00 3.1983875336178640e+00 2.2058476182776801e+01 1 0 -1
157 1 3 1.3843094054485863e-01 2.9203243526368325e+00 3.2332524710019603e+00 2.1011415002953470e+01 1 0 0
158 1 3 1.4847026681969050e-01 1.6180510310838613e+01 2.9602069791800094e+00 2.2884147411964769e+01 0 0 -1
159 1 2 9.7760127356157703e-03 5.1837838332156050e+00 3.4515743477298368e+00 2.1130837877301950e+01 0 0 0
160 1 3 1.5177314005716872e-01 6.2004389989531301e+00 3.3987973672066518e+00 2.1322238278145910e+01 0 0 0
161 1 3 1.4124298608742020e-01 4.6482295084034861e+00 3.3810228889282676e+00 2.0258642043037355e+01 0 0 0
212 1 2 1.3918487077367023e-02 9.9514175739801729e+00 2.9902881238725376e+00 2.1823097772535423e+01 0 0 -1
213 1 3 1.4693587518811563e-01 9.7009114763629398e+00 3.2595255482703323e+00 2.0847859109223752e+01 0 0 0
214 1 3 1.5217647396377229e-01 9.4014064084782127e+00 2.7842372484774431e+00 2.2694094908446303e+01 0 0 -1
338 1 2 8.1930981053050071e-03 6.2866774306710997e+00 4.3642096799296137e+00 1.6225077185078383e+01 0 0 0
339 1 3 1.4369177560359897e-01 5.9438616459964599e+00 4.7141357857901021e+00 1.5325147695930269e+01 0 0 0
340 1 3 1.5373239500754668e-01 5.7153263084782147e+00 4.2247990277982224e+00 1.7121782816409073e+01 0 0 0
343 1 3 1.4183113960366939e-01 7.9134236729985350e+00 5.0054576616212056e+00 1.4521026377435707e+01 0 0 0
401 1 2 2.2621291771736651e-01 1.4114412819847303e+01 3.8032971734251051e+00 1.8785205500681911e+01 0 0 0
402 1 4 -2.5295306383662286e-01 1.4528669055520366e+01 4.2858816725996745e+00 1.9892977373392341e+01 0 0 0
403 1 4 -2.8343363806623284e-01 1.2871433573934087e+01 3.4576422055627214e+00 1.8562590657424998e+01 0 0 0
443 1 2 2.2629080873038934e-01 1.0553404486606240e+01 5.1011982467223209e+00 1.2884757714133920e+01 0 0 0
444 1 4 -2.4030075888515412e-01 1.1004267262675707e+01 4.8725294870128320e+00 1.4105370823282358e+01 0 0 0
445 1 4 -2.9559472739465775e-01 9.3024594808973955e+00 5.0074804879824999e+00 1.2617819987020592e+01 0 0 0
113 1 1 -7.0919525821251488e-03 7.5789570093395016e+00 7.0962550712551709e+00 4.6848995619413953e+00 0 0 0
114 1 2 1.1198856953982320e-02 6.2174261955076666e+00 7.1465115214114645e+00 4.4632774849342693e+00 0 0 0
115 1 3 1.4768549965759631e-01 6.0529611170155855e+00 7.2050053932782632e+00 3.4244243455767540e+00 0 0 0
116 1 3 1.5219259615113875e-01 5.5868690472979079e+00 7.2517941714689815e+00 5.3376254816659232e+00 0 0 0
117 1 2 8.1774922525323750e-03 8.4683331333636147e+00 7.1968382253219874e+00 3.6604911244524123e+00 0 0 0
118 1 3 1.5291894220067268e-01 9.5118586091541069e+00 7.3908875747604679e+00 4.0555964368565762e+00 0 0 0
119 1 3 1.4854727224660833e-01 8.1065580692626966e+00 7.3997716351245675e+00 2.6478976808995380e+00 0 0 0
120 1 1 2.7978110252493811e-02 8.0239314181735182e+00 6.8676636554612411e+00 6.0490233644204734e+00 0 0 0
121 1 2 2.2746574320909302e-01 7.0557196841654477e+00 6.5775175063474842e+00 7.0961149742193097e+00 0 0 0
122 1 4 -2.4949525492074318e-01 7.5372328419798151e+00 6.1757914308627146e+00 8.2451800731632368e+00 0 0 0
123 1 4 -2.8461646206618402e-01 5.7759088017046905e+00 6.7153215359224445e+00 6.9204895094909302e+00 0 0 0
124 1 2 2.3585932069344448e-01 9.4694193457240470e+00 6.8592628561129452e+00 6.4243824659699724e+00 0 0 0
125 1 4 -2.7865921723622167e-01 9.8179790183325668e+00 6.5979891353816971e+00 7.6416541401103437e+00 0 0 0
126 1 4 -2.9067434044752760e-01 1.0326895314242503e+01 7.2020663189003953e+00 5.5227987054377445e+00 0 0 0
162 1 1 3.3403711805674419e-02 4.5127297495970637e+00 7.7828002993693781e+00 1.2053523894634655e-01 0 0 0
163 1 2 2.3352716458001252e-01 3.6881214265428439e+00 7.6968897350114629e+00 1.3380168388696934e+00 0 0 0
164 1 4 -2.4130803769490225e-01 4.2743464874875565e+00 7.6072008448542077e+00 2.4999628533457146e+00 0 0 0
165 1 4 -2.8818599579076998e-01 2.4018018690911105e+00 7.7801681167066947e+00 1.1625391749167870e+00 1 0 0
166 1 2 2.3291599707397562e-01 6.0080402458548461e+00 7.6107964073962968e+00 2.2356335022553075e-01 0 0 0
167 1 4 -2.7259660430402133e-01 6.4182722302115778e+00 7.2199559406689247e+00 1.3605104283870566e+00 0 0 0
168 1 4 -2.8281177627574733e-01 7.2270407892594886e+00 3.0010963786532994e+00 2.2683242487932308e+01 0 0 -1
169 1 1 -7.2406810156905033e-03 1.4255597514550109e+01 7.7384055187061289e+00 4.7732552186684600e+00 0 0 0
170 1 2 7.5564767627743883e-03 1.2929447585884972e+01 7.6776711097268082e+00 4.4517470958815455e+00 0 0 0
171 1 3 1.4882261327147847e-01 1.2753844779898236e+01 7.8790332872645781e+00 3.3869114560048041e+00 0 0 0
172 1 3 1.5532463581348488e-01 1.2401510134215632e+01 7.0279984159745501e+00 5.1838513507268598e+00 0 0 0
173 1 2 1.3448818950528733e-02 1.5111644793203858e+01 8.1698135263764549e+00 3.7996555502475147e+00 0 0 0
174 1 3 1.5436361686788469e-01 1.6113629750694869e+01 8.0955591107050360e+00 4.0477209924856981e+00 0 0 0
175 1 3 1.4394115676953653e-01 1.4703263165284037e+01 8.3001405559893353e+00 2.7634077829146060e+00 0 0 0
176 1 1 2.8354635664876310e-02 1.4764231266290572e+01 7.3122880238751629e+00 6.0731989701373710e+00 0 0 0
177 1 2 2.2495219593682919e-01 1.3874159630656859e+01 6.8637943925140021e+00 7.0956159898136066e+00 0 0 0
178 1 4 -2.5116842339657797e-01 1.4394299399056880e+01 6.6304209120164019e+00 8.2959853661428031e+00 0 0 0
179 1 4 -2.8206810933977167e-01 1.2606575267289541e+01 6.7024152533619805e+00 6.8781246043884181e+00 0 0 0
180 1 2 2.3644658522951784e-01 2.5588327871173888e+00 7.2593850546260450e+00 6.3243393015267779e+00 1 0 0
181 1 4 -2.6292277864730190e-01 2.9634969372512203e+00 6.7697716539982196e+00 7.4541544984615937e+00 0 0 0