ITEM: TIMESTEP
0
ITEM: NUMBER OF ATOMS
448
ITEM: BOX BOUNDS xy xz yz pp pp pp
-2.4186686450000000e-01 1.3879200000000001e+01 8.1284706647000001e-16
0.0000000000000000e+00 1.3274800000000003e+01 -2.4186686450000000e-01
0.0000000000000000e+00 2.2679910358299999e+01 1.4036330231000001e-15
ITEM: ATOMS id type xs ys zs
1 1 0.343944 0.120978 0.264308
2 2 0.237907 0.127714 0.258688
3 3 0.217157 0.154364 0.213839
4 3 0.194088 0.0933052 0.293721
5 2 0.410842 0.148371 0.217556
6 3 0.49076 0.144321 0.230054
7 3 0.372695 0.17452 0.177477
8 1 0.381997 0.0875077 0.317723
9 2 0.312576 0.0658777 0.36763
10 4 0.346693 0.0773342 0.421393
11 4 0.22608 0.0252472 0.359881
12 2 0.488766 0.0746912 0.325279
13 4 0.518895 0.0322035 0.375117
14 4 0.552336 0.104693 0.286014
15 1 0.406056 0.370978 0.485692
16 2 0.512093 0.377714 0.491312
17 3 0.532843 0.404364 0.536161
18 3 0.555912 0.343305 0.456279
19 2 0.339158 0.398371 0.532444
20 3 0.25924 0.394321 0.519946
21 3 0.377305 0.42452 0.572523
22 1 0.368003 0.337508 0.432277
23 2 0.437424 0.315878 0.38237
24 4 0.403307 0.327334 0.328607
25 4 0.52392 0.275247 0.390119
26 2 0.261234 0.324691 0.424721
27 4 0.231105 0.282204 0.374883
28 4 0.197664 0.354693 0.463986
29 1 0.156056 0.379022 0.235692
30 2 0.262093 0.372286 0.241312
31 3 0.282843 0.345636 0.286161
32 3 0.305912 0.406695 0.206279
33 2 0.0891582 0.35163 0.282444
34 3 0.00924032 0.355679 0.269946
35 3 0.127305 0.32548 0.322523
36 1 0.118004 0.412492 0.182277
37 2 0.187424 0.434122 0.132371
38 4 0.153307 0.422666 0.0786072
39 4 0.27392 0.474753 0.140119
40 2 0.0112336 0.425309 0.174721
41 4 0.981105 0.467796 0.124883
42 4 0.947663 0.395307 0.213986
43 1 0.0939443 0.129022 0.014308
44 2 0.987906 0.122286 0.00868762
45 3 0.967157 0.0956358 0.963839
46 3 0.944088 0.156695 0.0437212
47 2 0.160842 0.101629 0.967556
48 3 0.24076 0.105679 0.980054
49 3 0.122694 0.0754795 0.927477
50 1 0.131997 0.162492 0.0677232
51 2 0.0625762 0.184122 0.11763
52 4 0.0966927 0.172666 0.171393
53 4 0.97608 0.224753 0.109881
54 2 0.238766 0.175309 0.075279
55 4 0.268895 0.217796 0.125117
56 4 0.302336 0.145307 0.0360142
57 1 0.843944 0.120978 0.264308
58 2 0.737907 0.127714 0.258688
59 3 0.717157 0.154364 0.213839
60 3 0.694088 0.0933052 0.293721
61 2 0.910842 0.148371 0.217556
62 3 0.99076 0.144321 0.230054
63 3 0.872695 0.17452 0.177477
64 1 0.881997 0.0875077 0.317723
65 2 0.812576 0.0658777 0.36763
66 4 0.846693 0.0773342 0.421393
67 4 0.72608 0.0252472 0.359881
68 2 0.988766 0.0746912 0.325279
69 4 0.0188951 0.0322035 0.375117
70 4 0.0523365 0.104693 0.286014
71 1 0.906056 0.370978 0.485692
72 2 0.0120937 0.377714 0.491312
73 3 0.0328434 0.404364 0.536161
74 3 0.0559117 0.343305 0.456279
75 2 0.839158 0.398371 0.532444
76 3 0.75924 0.394321 0.519946
77 3 0.877306 0.42452 0.572523
78 1 0.868003 0.337508 0.432277
79 2 0.937424 0.315878 0.38237
80 4 0.903307 0.327334 0.328607
81 4 0.0239203 0.275247 0.390119
82 2 0.761234 0.324691 0.424721
83 4 0.731105 0.282204 0.374883
84 4 0.697664 0.354693 0.463986
85 1 0.656056 0.379022 0.235692
86 2 0.762093 0.372286 0.241312
87 3 0.782843 0.345636 0.286161
88 3 0.805912 0.406695 0.206279
89 2 0.589158 0.35163 0.282444
90 3 0.50924 0.355679 0.269946
91 3 0.627305 0.325479 0.322523
92 1 0.618003 0.412492 0.182277
93 2 0.687424 0.434122 0.132371
94 4 0.653308 0.422666 0.0786071
95 4 0.77392 0.474753 0.140119
96 2 0.511234 0.425309 0.174721
97 4 0.481105 0.467796 0.124883
98 4 0.447664 0.395307 0.213986
99 1 0.593944 0.129022 0.014308
100 2 0.487906 0.122286 0.00868768
101 3 0.467157 0.0956358 0.963839
102 3 0.444088 0.156695 0.0437212
103 2 0.660842 0.101629 0.967556
104 3 0.74076 0.105679 0.980054
105 3 0.622695 0.0754796 0.927477
106 1 0.631997 0.162492 0.0677231
107 2 0.562576 0.184122 0.11763
108 4 0.596693 0.172666 0.171393
109 4 0.47608 0.224753 0.109881
110 2 0.738766 0.175309 0.075279
111 4 0.768895 0.217796 0.125117
112 4 0.802336 0.145307 0.0360142
113 1 0.343944 0.620978 0.264308
114 2 0.237907 0.627714 0.258688
115 3 0.217157 0.654364 0.213839
116 3 0.194088 0.593305 0.293721
117 2 0.410842 0.648371 0.217556
118 3 0.49076 0.644321 0.230054
119 3 0.372695 0.67452 0.177477
120 1 0.381997 0.587508 0.317723
121 2 0.312576 0.565878 0.36763
122 4 0.346693 0.577334 0.421393
123 4 0.22608 0.525247 0.359881
124 2 0.488766 0.574691 0.325279
125 4 0.518895 0.532204 0.375117
126 4 0.552336 0.604693 0.286014
127 1 0.406056 0.870978 0.485692
128 2 0.512093 0.877714 0.491312
129 3 0.532843 0.904364 0.536161
130 3 0.555912 0.843305 0.456279
131 2 0.339158 0.898371 0.532444
132 3 0.25924 0.894321 0.519946
133 3 0.377305 0.92452 0.572523
134 1 0.368003 0.837508 0.432277
135 2 0.437424 0.815878 0.38237
136 4 0.403307 0.827334 0.328607
137 4 0.52392 0.775247 0.390119
138 2 0.261234 0.824691 0.424721
139 4 0.231105 0.782204 0.374883
140 4 0.197664 0.854693 0.463986
141 1 0.156056 0.879022 0.235692
142 2 0.262093 0.872286 0.241312
143 3 0.282843 0.845636 0.286161
144 3 0.305912 0.906695 0.206279
145 2 0.0891583 0.851629 0.282444
146 3 0.00924031 0.855679 0.269946
147 3 0.127305 0.82548 0.322523
148 1 0.118004 0.912492 0.182277
149 2 0.187424 0.934122 0.132371
150 4 0.153307 0.922666 0.0786072
151 4 0.27392 0.974753 0.140119
152 2 0.0112336 0.925309 0.174721
153 4 0.981105 0.967797 0.124883
154 4 0.947663 0.895307 0.213986
155 1 0.0939443 0.629022 0.014308
156 2 0.987906 0.622286 0.0086876
157 3 0.967157 0.595636 0.963839
158 3 0.944088 0.656695 0.0437212
159 2 0.160842 0.601629 0.967556
160 3 0.24076 0.605679 0.980054
161 3 0.122695 0.57548 0.927477
162 1 0.131997 0.662492 0.0677231
163 2 0.0625762 0.684122 0.11763
164 4 0.0966927 0.672666 0.171393
165 4 0.97608 0.724753 0.109881
166 2 0.238766 0.675309 0.075279
167 4 0.268895 0.717796 0.125117
168 4 0.302336 0.645307 0.0360142
169 1 0.843944 0.620978 0.264308
170 2 0.737907 0.627714 0.258688
171 3 0.717157 0.654364 0.213839
172 3 0.694088 0.593305 0.293721
173 2 0.910842 0.648371 0.217556
174 3 0.99076 0.644321 0.230054
175 3 0.872695 0.674521 0.177477
176 1 0.881997 0.587508 0.317723
177 2 0.812576 0.565878 0.36763
178 4 0.846693 0.577334 0.421393
179 4 0.72608 0.525247 0.359881
180 2 0.988766 0.574691 0.325279
181 4 0.0188951 0.532204 0.375117
182 4 0.0523365 0.604693 0.286014
183 1 0.906056 0.870978 0.485692
184 2 0.0120937 0.877714 0.491312
185 3 0.0328434 0.904364 0.536161
186 3 0.0559117 0.843305 0.456279
187 2 0.839158 0.898371 0.532444
188 3 0.75924 0.894321 0.519946
189 3 0.877305 0.92452 0.572523
190 1 0.868003 0.837508 0.432277
191 2 0.937424 0.815878 0.38237
192 4 0.903307 0.827334 0.328607
193 4 0.0239203 0.775247 0.390119
194 2 0.761234 0.824691 0.424721
195 4 0.731105 0.782204 0.374883
196 4 0.697664 0.854693 0.463986
197 1 0.656056 0.879022 0.235692
198 2 0.762093 0.872286 0.241312
199 3 0.782843 0.845636 0.286161
200 3 0.805912 0.906695 0.206279
201 2 0.589158 0.851629 0.282444
202 3 0.50924 0.855679 0.269946
203 3 0.627305 0.82548 0.322523
204 1 0.618003 0.912492 0.182277
205 2 0.687424 0.934122 0.13237
206 4 0.653307 0.922666 0.0786071
207 4 0.77392 0.974753 0.140119
208 2 0.511234 0.925309 0.174721
209 4 0.481105 0.967796 0.124883
210 4 0.447664 0.895307 0.213986
211 1 0.593944 0.629022 0.0143079
212 2 0.487906 0.622286 0.00868762
213 3 0.467157 0.595636 0.963839
214 3 0.444088 0.656695 0.0437212
215 2 0.660842 0.601629 0.967556
216 3 0.74076 0.605679 0.980054
217 3 0.622695 0.57548 0.927477
218 1 0.631997 0.662493 0.0677234
219 2 0.562576 0.684122 0.11763
220 4 0.596693 0.672666 0.171393
221 4 0.47608 0.724753 0.109881
222 2 0.738766 0.675309 0.075279
223 4 0.768895 0.717796 0.125117
224 4 0.802336 0.645307 0.0360142
225 1 0.343944 0.120978 0.764308
226 2 0.237906 0.127714 0.758688
227 3 0.217157 0.154364 0.713839
228 3 0.194088 0.0933052 0.793721
229 2 0.410842 0.148371 0.717556
230 3 0.49076 0.144321 0.730054
231 3 0.372695 0.17452 0.677477
232 1 0.381997 0.0875075 0.817723
233 2 0.312576 0.0658777 0.86763
234 4 0.346693 0.0773341 0.921393
235 4 0.22608 0.0252472 0.859881
236 2 0.488766 0.0746912 0.825279
237 4 0.518895 0.0322035 0.875117
238 4 0.552336 0.104693 0.786014
239 1 0.406046 0.37097 0.98568
240 2 0.512039 0.377709 0.99131
241 3 0.53284 0.404363 0.0361593
242 3 0.555909 0.343306 0.95628
243 2 0.339192 0.398355 0.03242
244 3 0.259244 0.394321 0.0199459
245 3 0.377305 0.424519 0.0725209
246 1 0.36803 0.337532 0.932316
247 2 0.437424 0.315881 0.882377
248 4 0.403306 0.327335 0.828606
249 4 0.523924 0.275246 0.890119
250 2 0.26124 0.324694 0.924725
251 4 0.231104 0.282203 0.874882
252 4 0.19766 0.354694 0.963987
253 1 0.156056 0.379022 0.735692
254 2 0.262093 0.372286 0.741312
255 3 0.282843 0.345636 0.786161
256 3 0.305912 0.406695 0.706279
257 2 0.089158 0.351629 0.782444
258 3 0.0092406 0.355679 0.769946
259 3 0.127306 0.32548 0.822523
260 1 0.118003 0.412492 0.682277
261 2 0.187424 0.434122 0.63237
262 4 0.153307 0.422666 0.578607
263 4 0.27392 0.474753 0.640119
264 2 0.0112336 0.425309 0.674721
265 4 0.981105 0.467796 0.624883
266 4 0.947664 0.395307 0.713986
267 1 0.0939444 0.129022 0.514308
268 2 0.987907 0.122286 0.508688
269 3 0.967157 0.0956358 0.463839
270 3 0.944088 0.156695 0.543721
271 2 0.160842 0.101629 0.467556
272 3 0.24076 0.105679 0.480054
273 3 0.122694 0.0754796 0.427477
274 1 0.131997 0.162492 0.567723
275 2 0.0625762 0.184122 0.61763
276 4 0.0966927 0.172666 0.671393
277 4 0.97608 0.224753 0.609881
278 2 0.238766 0.175309 0.575279
279 4 0.268895 0.217796 0.625117
280 4 0.302336 0.145307 0.536014
281 1 0.843944 0.120978 0.764308
282 2 0.737906 0.127714 0.758688
283 3 0.717157 0.154364 0.713839
284 3 0.694088 0.0933052 0.793721
285 2 0.910842 0.148371 0.717556
286 3 0.99076 0.144321 0.730054
287 3 0.872695 0.17452 0.677477
288 1 0.881997 0.0875076 0.817723
289 2 0.812576 0.0658777 0.86763
290 4 0.846693 0.0773342 0.921393
291 4 0.72608 0.0252472 0.859881
292 2 0.988766 0.0746912 0.825279
293 4 0.0188951 0.0322035 0.875117
294 4 0.0523365 0.104693 0.786014
295 1 0.906056 0.370978 0.985692
296 2 0.0120937 0.377714 0.991312
297 3 0.0328434 0.404364 0.0361605
298 3 0.0559118 0.343305 0.956279
299 2 0.839158 0.398371 0.0324442
300 3 0.75924 0.394321 0.0199458
301 3 0.877305 0.42452 0.0725229
302 1 0.868003 0.337508 0.932277
303 2 0.937424 0.315878 0.88237
304 4 0.903307 0.327334 0.828607
305 4 0.0239204 0.275247 0.890119
306 2 0.761234 0.324691 0.924721
307 4 0.731105 0.282204 0.874883
308 4 0.697664 0.354693 0.963986
309 1 0.656056 0.379022 0.735692
310 2 0.762094 0.372286 0.741312
311 3 0.782843 0.345636 0.786161
312 3 0.805912 0.406695 0.706279
313 2 0.589157 0.351629 0.782445
314 3 0.50924 0.355679 0.769946
315 3 0.627305 0.325479 0.822523
316 1 0.618003 0.412493 0.682276
317 2 0.687424 0.434122 0.63237
318 4 0.653307 0.422666 0.578607
319 4 0.77392 0.474753 0.640119
320 2 0.511234 0.425309 0.674721
321 4 0.481105 0.467796 0.624884
322 4 0.447664 0.395307 0.713986
323 1 0.593944 0.129022 0.514308
324 2 0.487906 0.122286 0.508688
325 3 0.467157 0.0956358 0.463839
326 3 0.444088 0.156695 0.543721
327 2 0.660842 0.101629 0.467556
328 3 0.74076 0.105679 0.480054
329 3 0.622695 0.0754795 0.427477
330 1 0.631997 0.162492 0.567723
331 2 0.562576 0.184122 0.61763
332 4 0.596693 0.172666 0.671393
333 4 0.47608 0.224753 0.609881
334 2 0.738766 0.175309 0.575279
335 4 0.768895 0.217796 0.625117
336 4 0.802336 0.145307 0.536014
337 1 0.343944 0.620978 0.764308
338 2 0.237906 0.627714 0.758688
339 3 0.217157 0.654364 0.713839
340 3 0.194088 0.593305 0.793721
341 2 0.410842 0.648371 0.717556
342 3 0.49076 0.644321 0.730054
343 3 0.372695 0.67452 0.677477
344 1 0.381997 0.587508 0.817723
345 2 0.312576 0.565878 0.86763
346 4 0.346693 0.577334 0.921393
347 4 0.22608 0.525247 0.859881
348 2 0.488766 0.574691 0.825279
349 4 0.518895 0.532204 0.875117
350 4 0.552336 0.604693 0.786014
351 1 0.406046 0.87097 0.98568
352 2 0.512039 0.877709 0.99131
353 3 0.53284 0.904363 0.0361593
354 3 0.555909 0.843306 0.95628
355 2 0.339192 0.898355 0.0324201
356 3 0.259244 0.894321 0.0199459
357 3 0.377305 0.924519 0.072521
358 1 0.36803 0.837532 0.932316
359 2 0.437424 0.815881 0.882377
360 4 0.403306 0.827335 0.828606
361 4 0.523924 0.775246 0.890119
362 2 0.26124 0.824694 0.924725
363 4 0.231104 0.782203 0.874882
364 4 0.19766 0.854694 0.963987
365 1 0.156056 0.879022 0.735692
366 2 0.262094 0.872286 0.741312
367 3 0.282843 0.845636 0.786161
368 3 0.305912 0.906695 0.706279
369 2 0.0891579 0.851629 0.782444
370 3 0.00924062 0.855679 0.769946
371 3 0.127306 0.82548 0.822523
372 1 0.118003 0.912492 0.682277
373 2 0.187424 0.934122 0.63237
374 4 0.153307 0.922666 0.578607
375 4 0.27392 0.974753 0.640119
376 2 0.0112336 0.925309 0.674721
377 4 0.981105 0.967796 0.624883
378 4 0.947664 0.895307 0.713986
379 1 0.0939443 0.629022 0.514308
380 2 0.987906 0.622286 0.508688
381 3 0.967157 0.595636 0.463839
382 3 0.944088 0.656695 0.543721
383 2 0.160842 0.601629 0.467556
384 3 0.24076 0.605679 0.480054
385 3 0.122694 0.57548 0.427477
386 1 0.131997 0.662492 0.567723
387 2 0.0625762 0.684122 0.61763
388 4 0.0966927 0.672666 0.671393
389 4 0.97608 0.724753 0.609881
390 2 0.238766 0.675309 0.575279
391 4 0.268895 0.717796 0.625117
392 4 0.302336 0.645307 0.536014
393 1 0.843944 0.620978 0.764308
394 2 0.737907 0.627714 0.758688
395 3 0.717157 0.654364 0.713839
396 3 0.694088 0.593305 0.793721
397 2 0.910842 0.648371 0.717556
398 3 0.99076 0.644321 0.730054
399 3 0.872695 0.67452 0.677477
400 1 0.881997 0.587508 0.817723
401 2 0.812576 0.565878 0.86763
402 4 0.846693 0.577334 0.921393
403 4 0.72608 0.525247 0.859881
404 2 0.988766 0.574691 0.825279
405 4 0.0188951 0.532204 0.875117
406 4 0.0523365 0.604693 0.786014
407 1 0.906056 0.870978 0.985692
408 2 0.0120935 0.877714 0.991312
409 3 0.0328433 0.904364 0.0361606
410 3 0.0559118 0.843305 0.956279
411 2 0.839158 0.898371 0.0324442
412 3 0.75924 0.894321 0.0199458
413 3 0.877306 0.92452 0.072523
414 1 0.868003 0.837508 0.932277
415 2 0.937424 0.815878 0.88237
416 4 0.903307 0.827334 0.828607
417 4 0.0239204 0.775247 0.890119
418 2 0.761234 0.824691 0.924721
419 4 0.731105 0.782204 0.874883
420 4 0.697664 0.854693 0.963986
421 1 0.656056 0.879022 0.735692
422 2 0.762094 0.872286 0.741312
423 3 0.782843 0.845636 0.786161
424 3 0.805912 0.906695 0.706279
425 2 0.589157 0.851629 0.782445
426 3 0.50924 0.855679 0.769946
427 3 0.627305 0.82548 0.822523
428 1 0.618003 0.912493 0.682276
429 2 0.687424 0.934122 0.63237
430 4 0.653307 0.922666 0.578607
431 4 0.77392 0.974753 0.640119
432 2 0.511234 0.925309 0.674721
433 4 0.481105 0.967796 0.624884
434 4 0.447664 0.895307 0.713986
435 1 0.593944 0.629022 0.514308
436 2 0.487907 0.622286 0.508688
437 3 0.467157 0.595636 0.463839
438 3 0.444088 0.656695 0.543721
439 2 0.660842 0.601629 0.467556
440 3 0.74076 0.605679 0.480054
441 3 0.622695 0.57548 0.427477
442 1 0.631997 0.662492 0.567723
443 2 0.562576 0.684122 0.61763
444 4 0.596693 0.672666 0.671393
445 4 0.47608 0.724753 0.609881
446 2 0.738766 0.675309 0.575279
447 4 0.768895 0.717796 0.625117
448 4 0.802336 0.645307 0.536014
ITEM: TIMESTEP
1000
ITEM: NUMBER OF ATOMS
448
ITEM: BOX BOUNDS xy xz yz pp pp pp
-2.5815449325855422e+00 1.4436081417960020e+01 2.8403376940309578e-02
-1.0863237934629515e+00 1.4376473134203259e+01 -2.0530668915658410e+00
-7.4761693639782401e-01 2.3427527294697754e+01 1.5349340740346346e-02
ITEM: ATOMS id type xs ys zs
1 1 0.346155 0.120746 0.260387
2 2 0.247581 0.119117 0.25453
3 3 0.208068 0.126155 0.215541
4 3 0.223354 0.152357 0.294007
5 2 0.408797 0.127705 0.217941
6 3 0.481326 0.100305 0.229712
7 3 0.380804 0.15433 0.178346
8 1 0.382279 0.101308 0.314143
9 2 0.317089 0.0882379 0.359412
10 4 0.352879 0.0523226 0.405421
11 4 0.232193 0.107823 0.354759
12 2 0.48141 0.0863184 0.326027
13 4 0.517041 0.0898754 0.376957
14 4 0.539803 0.0828959 0.287074
15 1 0.383219 0.380705 0.485827
16 2 0.478742 0.394659 0.48278
17 3 0.514863 0.430263 0.519127
18 3 0.519209 0.375311 0.446697
19 2 0.336824 0.390968 0.537085
20 3 0.264102 0.390744 0.528287
21 3 0.369734 0.392073 0.580544
22 1 0.337001 0.347336 0.438123
23 2 0.3888 0.326698 0.389565
24 4 0.342381 0.290105 0.34618
25 4 0.473001 0.347654 0.383689
26 2 0.2362 0.338844 0.435487
27 4 0.190726 0.332917 0.387319
28 4 0.193414 0.333118 0.481411
29 1 0.129122 0.376224 0.246137
30 2 0.225403 0.388784 0.265532
31 3 0.239661 0.382582 0.311009
32 3 0.279131 0.37383 0.23714
33 2 0.0562114 0.353744 0.279421
34 3 0.984105 0.350756 0.254905
35 3 0.0807592 0.333257 0.323417
36 1 0.110905 0.397332 0.190453
37 2 0.186182 0.424726 0.154562
38 4 0.160491 0.476913 0.114463
39 4 0.268786 0.390296 0.15857
40 2 0.0153939 0.38747 0.165279
41 4 0.00167195 0.399388 0.112252
42 4 0.944047 0.362879 0.191348
43 1 0.10615 0.101973 0.00951629
44 2 0.00890306 0.101745 0.00247749
45 3 0.989128 0.0868939 0.95786
46 3 0.97803 0.0994071 0.045899
47 2 0.164323 0.0788431 0.965102
48 3 0.239805 0.0699959 0.977381
49 3 0.135153 0.0818956 0.921862
50 1 0.143529 0.133595 0.0609116
51 2 0.0844549 0.156881 0.107545
52 4 0.131021 0.193945 0.14937
53 4 0.995661 0.145337 0.104986
54 2 0.243741 0.144971 0.0654466
55 4 0.28268 0.179603 0.111199
56 4 0.298444 0.124189 0.0267572
57 1 0.833115 0.0959344 0.251301
58 2 0.735068 0.100888 0.249142
59 3 0.699374 0.0924782 0.206965
60 3 0.703912 0.117848 0.290933
61 2 0.885511 0.105047 0.203944
62 3 0.96414 0.105289 0.216878
63 3 0.845839 0.122114 0.166175
64 1 0.880586 0.088648 0.303256
65 2 0.826577 0.0779799 0.354198
66 4 0.871072 0.0420358 0.396503
67 4 0.740759 0.0991707 0.355066
68 2 0.981268 0.0878288 0.309227
69 4 0.018908 0.0934281 0.360557
70 4 0.0348128 0.0938806 0.26847
71 1 0.869948 0.38265 0.486257
72 2 0.969488 0.380703 0.494252
73 3 0.00371156 0.404324 0.531655
74 3 0.00215782 0.37282 0.453526
75 2 0.811978 0.396725 0.530171
76 3 0.733469 0.408776 0.519043
77 3 0.838102 0.373193 0.57203
78 1 0.829091 0.369445 0.433075
79 2 0.888296 0.349459 0.385983
80 4 0.845871 0.322654 0.3403
81 4 0.977301 0.352139 0.389061
82 2 0.730402 0.366256 0.424263
83 4 0.695414 0.353929 0.372374
84 4 0.675384 0.392723 0.461345
85 1 0.650595 0.380554 0.217782
86 2 0.742176 0.340835 0.226278
87 3 0.759974 0.33 0.271369
88 3 0.768528 0.307111 0.185962
89 2 0.594243 0.397545 0.262684
90 3 0.545139 0.457954 0.253067
91 3 0.623441 0.375339 0.306487
92 1 0.623701 0.409371 0.165057
93 2 0.689389 0.402393 0.120829
94 4 0.679856 0.459327 0.0800119
95 4 0.75934 0.349427 0.122563
96 2 0.531333 0.451319 0.157652
97 4 0.49352 0.445925 0.106204
98 4 0.476941 0.468102 0.196931
99 1 0.569289 0.123708 0.998702
100 2 0.473362 0.105625 0.99202
101 3 0.443838 0.0960104 0.946771
102 3 0.438243 0.100064 0.0312764
103 2 0.632928 0.115308 0.9561
104 3 0.701709 0.149743 0.967288
105 3 0.601603 0.0775041 0.920743
106 1 0.606558 0.150432 0.0512889
107 2 0.54485 0.166787 0.0957178
108 4 0.578052 0.191485 0.146007
109 4 0.467084 0.125674 0.0956003
110 2 0.707365 0.156494 0.0645671
111 4 0.739426 0.145256 0.116128
112 4 0.766427 0.157746 0.025098
113 1 0.330513 0.632335 0.270214
114 2 0.233162 0.61829 0.262773
115 3 0.193311 0.651779 0.230593
116 3 0.209225 0.562472 0.289919
117 2 0.385243 0.667749 0.226498
118 3 0.454599 0.638579 0.226338
119 3 0.347022 0.700121 0.193577
120 1 0.374869 0.609846 0.319742
121 2 0.322316 0.575426 0.364716
122 4 0.358517 0.568618 0.416534
123 4 0.242158 0.539097 0.352282
124 2 0.477743 0.613423 0.325914
125 4 0.517884 0.59964 0.375461
126 4 0.528648 0.627909 0.286646
127 1 0.421327 0.857257 0.488509
128 2 0.516426 0.880035 0.497427
129 3 0.549216 0.850444 0.537319
130 3 0.534205 0.919104 0.456842
131 2 0.359428 0.845212 0.531725
132 3 0.288693 0.854267 0.523348
133 3 0.390861 0.864697 0.572788
134 1 0.387036 0.829373 0.435546
135 2 0.450615 0.833043 0.391697
136 4 0.421859 0.797536 0.341887
137 4 0.527814 0.871719 0.395838
138 2 0.292056 0.798631 0.429229
139 4 0.261033 0.775073 0.379855
140 4 0.228849 0.829648 0.461517
141 1 0.183105 0.883957 0.244549
142 2 0.281403 0.874483 0.248336
143 3 0.31496 0.862338 0.290282
144 3 0.307958 0.890038 0.206548
145 2 0.122545 0.86947 0.289207
146 3 0.0645111 0.918768 0.286012
147 3 0.152476 0.830677 0.323205
148 1 0.141134 0.9043 0.193528
149 2 0.190624 0.924722 0.144018
150 4 0.147424 0.955125 0.0988569
151 4 0.281004 0.915547 0.142451
152 2 0.0381816 0.904075 0.187234
153 4 0.993431 0.888008 0.139141
154 4 0.995059 0.921648 0.230577
155 1 0.068322 0.624523 0.0265808
156 2 0.972853 0.601883 0.0203155
157 3 0.94452 0.595194 0.977788
158 3 0.938017 0.601725 0.0600576
159 2 0.131664 0.617782 0.98423
160 3 0.208331 0.63911 0.995986
161 3 0.0960778 0.60992 0.94129
162 1 0.104606 0.656439 0.0779771
163 2 0.0454965 0.671553 0.123676
164 4 0.0869651 0.703141 0.168944
165 4 0.960484 0.645731 0.12369
166 2 0.203167 0.675581 0.0869292
167 4 0.234581 0.699606 0.137834
168 4 0.262157 0.672512 0.0508359
169 1 0.817107 0.610351 0.253377
170 2 0.721397 0.625343 0.24665
171 3 0.693265 0.631611 0.203834
172 3 0.697895 0.63817 0.291308
173 2 0.87626 0.608876 0.207734
174 3 0.93483 0.557119 0.214748
175 3 0.859842 0.656603 0.175479
176 1 0.866111 0.59544 0.304736
177 2 0.81076 0.585171 0.354173
178 4 0.853232 0.562876 0.401405
179 4 0.725739 0.611535 0.35489
180 2 0.965563 0.583098 0.309231
181 4 0.010922 0.579744 0.359055
182 4 0.00998815 0.570567 0.265652
183 1 0.925114 0.86716 0.485649
184 2 0.0231036 0.888675 0.494262
185 3 0.0415405 0.922036 0.536301
186 3 0.0624545 0.890889 0.452726
187 2 0.865898 0.868165 0.530161
188 3 0.792843 0.841998 0.521766
189 3 0.895662 0.884918 0.568027
190 1 0.88838 0.84632 0.433025
191 2 0.94493 0.844384 0.386102
192 4 0.920233 0.805875 0.338383
193 4 0.0321798 0.871664 0.385945
194 2 0.788155 0.821754 0.425497
195 4 0.751923 0.815476 0.375353
196 4 0.73253 0.819534 0.465466
197 1 0.670111 0.856657 0.243725
198 2 0.767019 0.836981 0.253344
199 3 0.786341 0.819675 0.296066
200 3 0.80805 0.854044 0.218431
201 2 0.604673 0.832497 0.28271
202 3 0.534611 0.865512 0.264652
203 3 0.626888 0.816427 0.326126
204 1 0.643569 0.894584 0.192355
205 2 0.708703 0.910363 0.149349
206 4 0.678583 0.942732 0.101802
207 4 0.794358 0.887516 0.15511
208 2 0.547439 0.913618 0.178928
209 4 0.521546 0.933081 0.126994
210 4 0.478506 0.903811 0.210934
211 1 0.553267 0.637331 0.00465807
212 2 0.459533 0.610657 0.00337591
213 3 0.412579 0.621157 0.966623
214 3 0.434857 0.610782 0.0504698
215 2 0.611904 0.641099 0.959128
216 3 0.678068 0.672257 0.963052
217 3 0.571018 0.630133 0.918621
218 1 0.599031 0.656143 0.0559499
219 2 0.546849 0.664288 0.106704
220 4 0.588796 0.702192 0.15117
221 4 0.462196 0.653359 0.108996
222 2 0.699094 0.665355 0.0607668
223 4 0.745747 0.661815 0.110166
224 4 0.75087 0.68034 0.020678
225 1 0.360932 0.132756 0.747769
226 2 0.262685 0.146208 0.741917
227 3 0.233073 0.167916 0.699501
228 3 0.230971 0.13399 0.781593
229 2 0.423792 0.158238 0.707407
230 3 0.499666 0.164042 0.716576
231 3 0.383276 0.169575 0.666396
232 1 0.398274 0.0897783 0.794783
233 2 0.337812 0.0537828 0.835923
234 4 0.366005 0.989637 0.869464
235 4 0.258794 0.0878928 0.844566
236 2 0.498012 0.0746415 0.80457
237 4 0.528911 0.0305276 0.848388
238 4 0.553668 0.108332 0.770132
239 1 0.419495 0.33832 0.99165
240 2 0.518415 0.338337 0.99992
241 3 0.543834 0.380834 0.0325992
242 3 0.550237 0.338914 0.955175
243 2 0.357681 0.355357 0.0312817
244 3 0.279765 0.352754 0.0102132
245 3 0.384222 0.366742 0.0738085
246 1 0.383287 0.321119 0.935734
247 2 0.440073 0.283468 0.892212
248 4 0.404998 0.253222 0.845586
249 4 0.528397 0.306707 0.896055
250 2 0.286315 0.329835 0.928927
251 4 0.246775 0.316901 0.881173
252 4 0.229689 0.339311 0.973931
253 1 0.181314 0.410042 0.74374
254 2 0.278087 0.413778 0.755841
255 3 0.302247 0.401856 0.801622
256 3 0.323371 0.411775 0.717648
257 2 0.116084 0.389441 0.783581
258 3 0.0418452 0.381266 0.765844
259 3 0.140517 0.374621 0.826638
260 1 0.145707 0.426894 0.689286
261 2 0.209772 0.443006 0.646266
262 4 0.178119 0.461627 0.594745
263 4 0.299764 0.439556 0.655382
264 2 0.0484287 0.425848 0.674669
265 4 0.0151086 0.431367 0.622255
266 4 0.987006 0.423732 0.713009
267 1 0.112794 0.152046 0.500474
268 2 0.0125375 0.160119 0.495175
269 3 0.982006 0.149174 0.454838
270 3 0.984328 0.144975 0.537585
271 2 0.170253 0.131393 0.457246
272 3 0.251752 0.123163 0.473569
273 3 0.134107 0.123391 0.416396
274 1 0.152688 0.168874 0.55365
275 2 0.0934144 0.192853 0.601216
276 4 0.131689 0.237227 0.638485
277 4 0.0109565 0.158027 0.603812
278 2 0.254457 0.160585 0.564672
279 4 0.286482 0.183316 0.614616
280 4 0.308713 0.129031 0.528836
281 1 0.858279 0.134996 0.763048
282 2 0.761408 0.148754 0.75658
283 3 0.73851 0.179718 0.717645
284 3 0.722561 0.117873 0.792962
285 2 0.921733 0.150429 0.720485
286 3 0.997688 0.15463 0.736142
287 3 0.888088 0.142834 0.678706
288 1 0.895499 0.105722 0.81475
289 2 0.834839 0.0938667 0.861539
290 4 0.870484 0.0542726 0.907521
291 4 0.746911 0.0977327 0.857961
292 2 0.997939 0.0900098 0.823968
293 4 0.0300113 0.0638899 0.872313
294 4 0.0572884 0.119271 0.791003
295 1 0.939546 0.341959 0.976578
296 2 0.035529 0.357594 0.987437
297 3 0.0625605 0.374546 0.0326747
298 3 0.0759696 0.369675 0.950357
299 2 0.872484 0.350731 0.0192036
300 3 0.800886 0.3487 0.00254816
301 3 0.903015 0.350391 0.0619361
302 1 0.898353 0.321597 0.925245
303 2 0.966273 0.308517 0.882111
304 4 0.938877 0.324089 0.830067
305 4 0.0446741 0.269965 0.893659
306 2 0.800811 0.308703 0.910903
307 4 0.768169 0.287762 0.860857
308 4 0.73732 0.313613 0.94804
309 1 0.678628 0.407815 0.743134
310 2 0.776516 0.408051 0.739339
311 3 0.811921 0.38748 0.77755
312 3 0.792683 0.396184 0.693864
313 2 0.630515 0.41135 0.793844
314 3 0.56084 0.434512 0.782529
315 3 0.671121 0.392515 0.834235
316 1 0.627383 0.401056 0.693108
317 2 0.666391 0.401577 0.639154
318 4 0.612276 0.422447 0.595872
319 4 0.752256 0.373556 0.633357
320 2 0.522731 0.39131 0.693985
321 4 0.472725 0.365497 0.648747
322 4 0.477625 0.416734 0.734027
323 1 0.609092 0.141194 0.513593
324 2 0.510915 0.121982 0.509315
325 3 0.481456 0.119417 0.466016
326 3 0.472901 0.112208 0.548173
327 2 0.659893 0.127274 0.466289
328 3 0.738487 0.148583 0.476376
329 3 0.618718 0.116974 0.426237
330 1 0.653089 0.166243 0.564285
331 2 0.597208 0.173414 0.612706
332 4 0.637653 0.187582 0.662272
333 4 0.518733 0.133231 0.613044
334 2 0.752004 0.186019 0.567557
335 4 0.790348 0.199348 0.618371
336 4 0.798376 0.192219 0.524908
337 1 0.307744 0.626434 0.770771
338 2 0.209695 0.637304 0.76491
339 3 0.178205 0.679625 0.734209
340 3 0.172853 0.591735 0.793195
341 2 0.368268 0.654357 0.732737
342 3 0.448457 0.637302 0.749764
343 3 0.353021 0.660053 0.689225
344 1 0.349322 0.589843 0.820814
345 2 0.284304 0.563939 0.865075
346 4 0.317257 0.568143 0.916691
347 4 0.198958 0.547876 0.852615
348 2 0.446959 0.57993 0.825524
349 4 0.485082 0.540911 0.867525
350 4 0.500646 0.613274 0.785456
351 1 0.405312 0.841835 0.0115916
352 2 0.504354 0.845725 0.0128992
353 3 0.536154 0.852471 0.0557048
354 3 0.524953 0.859045 0.971253
355 2 0.351088 0.854909 0.058741
356 3 0.28016 0.832663 0.0509924
357 3 0.388165 0.875281 0.098295
358 1 0.361914 0.826704 0.959414
359 2 0.418619 0.802959 0.912389
360 4 0.379597 0.763022 0.870949
361 4 0.495438 0.845255 0.905308
362 2 0.261674 0.832688 0.951234
363 4 0.225684 0.839401 0.899158
364 4 0.209851 0.838923 0.992956
365 1 0.175341 0.902069 0.735869
366 2 0.273724 0.891226 0.74266
367 3 0.300894 0.861883 0.781382
368 3 0.308669 0.882447 0.702398
369 2 0.11982 0.890969 0.78216
370 3 0.0475575 0.921428 0.777923
371 3 0.159888 0.877936 0.822084
372 1 0.128848 0.923561 0.68528
373 2 0.189296 0.939456 0.638304
374 4 0.15381 0.977561 0.594297
375 4 0.270941 0.903064 0.636465
376 2 0.0288658 0.93522 0.679439
377 4 0.988876 0.943476 0.629028
378 4 0.980731 0.946632 0.723348
379 1 0.0692729 0.653988 0.501506
380 2 0.96984 0.655657 0.49136
381 3 0.947617 0.623461 0.452153
382 3 0.934478 0.675795 0.528173
383 2 0.129468 0.617799 0.463806
384 3 0.210107 0.622492 0.476867
385 3 0.101054 0.624003 0.421169
386 1 0.109783 0.68617 0.551508
387 2 0.0480949 0.714321 0.596398
388 4 0.0842927 0.757047 0.638476
389 4 0.969645 0.678056 0.603811
390 2 0.209184 0.693599 0.560746
391 4 0.244131 0.714745 0.610464
392 4 0.267023 0.673434 0.52349
393 1 0.829431 0.61752 0.769058
394 2 0.734111 0.642243 0.756155
395 3 0.708456 0.638522 0.712299
396 3 0.696389 0.653852 0.794486
397 2 0.897976 0.615863 0.730798
398 3 0.962515 0.572609 0.746065
399 3 0.873645 0.625176 0.687979
400 1 0.857328 0.595187 0.824183
401 2 0.790792 0.583597 0.866367
402 4 0.812179 0.538419 0.911376
403 4 0.713557 0.628002 0.864546
404 2 0.956614 0.582561 0.841659
405 4 0.982488 0.590261 0.89491
406 4 0.0127864 0.559503 0.805642
407 1 0.916199 0.885074 0.00350468
408 2 0.0162732 0.883554 0.0178443
409 3 0.0317582 0.917864 0.0573353
410 3 0.0511634 0.851507 0.986245
411 2 0.848601 0.919908 0.0358602
412 3 0.777571 0.899651 0.0202278
413 3 0.867293 0.9374 0.078324
414 1 0.884763 0.858464 0.949945
415 2 0.946508 0.82656 0.90607
416 4 0.912198 0.794055 0.859956
417 4 0.0356473 0.835082 0.91311
418 2 0.787804 0.858095 0.942334
419 4 0.749369 0.838579 0.895564
420 4 0.728602 0.886792 0.982138
421 1 0.663677 0.895168 0.743296
422 2 0.761936 0.886106 0.745316
423 3 0.800593 0.863425 0.784665
424 3 0.785533 0.885371 0.699086
425 2 0.617335 0.890641 0.793207
426 3 0.537391 0.880181 0.783759
427 3 0.663551 0.890423 0.828915
428 1 0.612194 0.910354 0.692451
429 2 0.662092 0.913295 0.641158
430 4 0.609462 0.934058 0.595535
431 4 0.747601 0.900406 0.637751
432 2 0.512776 0.918346 0.69216
433 4 0.464454 0.927227 0.645317
434 4 0.467389 0.905797 0.737415
435 1 0.584815 0.634319 0.515025
436 2 0.48786 0.62867 0.504626
437 3 0.464771 0.624598 0.459373
438 3 0.449487 0.663143 0.536733
439 2 0.64748 0.617937 0.47231
440 3 0.716877 0.64985 0.48025
441 3 0.611819 0.594706 0.433151
442 1 0.62313 0.648776 0.569236
443 2 0.559892 0.665017 0.613519
444 4 0.596531 0.66819 0.664872
445 4 0.475276 0.690685 0.603721
446 2 0.725463 0.64884 0.579152
447 4 0.75797 0.643322 0.630701
448 4 0.781572 0.649287 0.539437