LAMMPS data file via write_data, version 15 Apr 2020, timestep = 80000

448 atoms
4 atom types

-5.7488145934309109e-01 1.4454081459342945e+01 xlo xhi
-5.0393492152384223e-01 1.3778734921524084e+01 ylo yhi
-9.3946837922985793e-01 2.3619378737528969e+01 zlo zhi
-5.7022463192499604e+00 -1.4120250139484889e+00 -8.9470787719050882e-01 xy xz yz

Masses

1 12.0107
2 14.0067
3 1.00794
4 15.9994

Atoms # full

287 1 3 5.0494835633787960e-01 -7.5951482807028936e-01 1.0600102371055098e+00 1.1385925408909962e+01 1 0 0
288 1 1 1.0506198474069975e-01 -2.5238152783391543e-01 1.1265745303793455e+00 1.4776663578945078e+01 1 0 0
281 1 1 3.5316060151659306e-01 -9.1760774235928910e-01 1.2547620373860882e+00 1.3510233403577098e+01 1 0 0
66 1 4 -1.8598965917685145e-01 -4.7548596388880537e-01 5.2782530948922490e-01 5.3430185080605028e+00 1 0 0
290 1 4 -1.8524160899544692e-01 -5.1040703174928348e-01 1.0156045631520980e+00 1.7064135405893360e+01 1 0 0
289 1 2 -3.9363241308443334e-02 -1.1284433628082211e+00 1.1488772072193969e+00 1.5920999302369555e+01 1 0 0
65 1 2 -2.7142609935869300e-02 -9.7221929071107804e-01 6.0896936591293138e-01 4.1433861472217171e+00 1 0 0
112 1 4 -3.4750939870016073e-01 -2.1071043563103173e+00 2.8339450549912526e-01 2.0467079837576708e+01 1 0 -1
111 1 4 -1.8648113032620350e-01 1.2340053648520801e+01 3.5700918652915659e-01 2.2690894190457584e+01 0 0 -1
63 1 3 4.5071306304998582e-01 1.7443208729682791e-01 5.7869625316081819e-01 -2.9411898482764554e-01 1 0 0
64 1 1 8.3239711637022110e-02 9.4603898617409254e-02 6.8953588235764030e-01 3.0342453448336455e+00 1 0 0
285 1 2 -6.9764267700875049e-01 -1.2432740925722907e-01 1.2344912528039165e+00 1.2240891234358351e+01 1 0 0
61 1 2 -6.8096869066180110e-01 5.9221988381929713e-01 4.9415090937825590e-01 6.8612386625742205e-01 1 0 0
270 1 3 4.7916436554340913e-01 1.2275747445255294e+00 3.6581017101378288e-01 8.0407725706137185e+00 1 0 0
57 1 1 3.2952692165369285e-01 -3.8307240868963260e-01 6.3512371533052803e-01 1.6556040164655403e+00 1 0 0
336 1 4 -3.4252388412489043e-01 -1.7349238134249862e+00 1.4015077900762152e+00 8.0547316354008789e+00 1 0 0
104 1 3 5.4014584833186718e-01 1.2202010816505865e+01 3.7826915542360429e-01 1.9568631975464221e+01 0 0 0
44 1 2 -6.8927336016332141e-01 1.2320179472058796e+00 3.2491362607166674e-02 1.9395092505253395e+01 1 0 -1
45 1 3 3.9697918004801180e-01 8.5040144951071128e-01 2.4017449790354806e-02 1.8339134175680474e+01 1 0 0
46 1 3 4.9087205974266163e-01 6.9976351884494936e-01 4.4624896448461304e-01 2.0212966199377771e+01 1 0 -1
53 1 4 -2.2329302196336132e-01 9.8547350521228161e-01 4.0518445800503922e-01 2.1976273689663966e+01 1 0 -1
62 1 3 5.4757031596594030e-01 1.7388183544145155e+00 3.8477287008399430e-01 1.2568456072835290e+00 1 0 0
68 1 2 -3.6312306052601120e-02 1.5295123656969827e+00 6.8780888916631810e-01 3.1863589436196325e+00 1 0 0
69 1 4 -2.2832418925938885e-01 2.0555339106895758e+00 7.2353473814702007e-01 4.3995483822195878e+00 0 0 0
70 1 4 -3.7449014289804300e-01 2.4135834606576134e+00 4.2615581874132547e-01 2.1514913769879462e+00 0 0 0
268 1 2 -6.6526207468289944e-01 1.7037171423018804e+00 1.0365695136270334e+00 7.3258111488997777e+00 1 0 0
269 1 3 4.3749783733428332e-01 1.3834688753647475e+00 1.4312675511057835e+00 6.3254262483563952e+00 1 0 0
275 1 2 -1.6335520197007302e-02 2.8433253201127484e+00 1.0616625981067438e+00 9.9739242038165461e+00 0 0 0
277 1 4 -2.0865486837266883e-01 1.5770756984469565e+00 8.0354999619726453e-01 9.8831639055472884e+00 1 0 0
286 1 3 5.1128188513101824e-01 9.6721893413173365e-01 1.4967697176629344e+00 1.2365949950902197e+01 1 0 0
292 1 2 2.1690586918409645e-03 1.2636919498852510e+00 1.0515627222528003e+00 1.4829366470938389e+01 1 0 0
293 1 4 -1.9454321759732673e-01 1.7404713023806466e+00 9.6124925375260895e-01 1.6036907670787368e+01 0 0 0
294 1 4 -2.3769988890516092e-01 1.9563204862015176e+00 1.2562497820599148e+00 1.3716451476221847e+01 0 0 0
276 1 4 -1.7152530431573165e-01 3.3557941108634992e+00 8.3584710250146221e-01 1.1224750399525757e+01 0 0 0
43 1 1 3.4761490531251216e-01 2.7130670839286628e+00 7.0694945104625151e-02 1.9559707549516666e+01 0 0 -1
51 1 2 -1.2109781694977544e-02 2.2380529192509995e+00 1.4337134165269017e-01 2.2099995747748281e+01 0 0 -1
52 1 4 -1.9860964471561793e-01 2.7116950808678322e+00 -2.1835716767584856e-01 2.3307900555211166e+01 0 0 -1
267 1 1 3.2642963318299301e-01 3.2015176051869370e+00 1.1369153885200418e+00 7.4874047791236027e+00 0 0 0
50 1 1 8.6167671992576592e-02 3.2226015363936278e+00 1.6862157407346190e-01 2.0923097612365055e+01 0 0 -1
273 1 3 4.6964505368035991e-01 3.6480576587280442e+00 1.2371109290328648e+00 5.4823077722118194e+00 0 0 0
274 1 1 1.2148663236712538e-01 3.7738489261515609e+00 1.2264213539991400e+00 8.8185968689496708e+00 0 0 0
47 1 2 -6.8549090884562491e-01 3.6805754001381614e+00 3.1597383188711081e-02 1.8601613505482497e+01 0 0 0
49 1 3 4.6483189704135214e-01 3.4251612402899512e+00 1.8814440561046242e-01 1.7553714007202988e+01 0 0 0
271 1 2 -6.9676631688714141e-01 4.1315728816058046e+00 1.2869748096801668e+00 6.4838069967033771e+00 0 0 0
227 1 3 4.5489794001804140e-01 4.7078100117460959e+00 1.5718120739249297e+00 1.2866476249628132e+01 0 0 0
228 1 3 5.4846151332725213e-01 4.4948651580929413e+00 1.2821020588998839e+00 1.4919588789157503e+01 0 0 0
235 1 4 -3.5181624966789182e-01 4.6493535817543350e+00 1.1366882339094397e+00 1.6160496427588626e+01 0 0 0
4 1 3 4.7101736986937415e-01 5.1142860719890395e+00 5.6655308964698348e-01 2.1451840136348910e+00 0 0 0
48 1 3 5.5434687166594976e-01 4.8142638427723066e+00 2.0417689709068243e-01 1.9128431611418979e+01 0 0 0
54 1 2 -2.4783815024444301e-02 4.6571913962042215e+00 1.3156598515070916e-01 2.1151754174020930e+01 0 0 -1
278 1 2 -2.3796298289895140e-02 5.1768749739155320e+00 1.4702180623654373e+00 8.9067899486537847e+00 0 0 0
2 1 2 -6.5365404732313670e-01 5.6635261230429021e+00 5.3501373443418432e-01 1.1232414465644891e+00 0 0 0
3 1 3 4.2980614065722245e-01 5.4493022501202253e+00 1.1211435665726379e+00 2.2828802017709560e-01 0 0 0
11 1 4 -2.5917298219082885e-01 5.3255598036085354e+00 4.2953692066308380e-01 3.7311748273437457e+00 0 0 0
272 1 3 5.9960397581651836e-01 5.2834101254428871e+00 1.3262309202550346e+00 6.8952728080143251e+00 0 0 0
226 1 2 -6.7247944555103412e-01 5.0935366535140068e+00 1.6179826188576016e+00 1.3887819534952859e+01 0 0 0
55 1 4 -2.0409087311355803e-01 5.0860160746933243e+00 9.4833827510000801e-02 2.2369057257461996e+01 0 0 -1
279 1 4 -1.6141632641426062e-01 5.7366071597963844e+00 1.8601947158489707e+00 1.0003654643110250e+01 0 0 0
280 1 4 -3.7505743732321950e-01 6.0332277170428918e+00 1.4177989875972323e+00 7.7737065950084219e+00 0 0 0
9 1 2 -1.9248215343937582e-02 6.5918416723784636e+00 7.8732447676681327e-01 3.7936374352081392e+00 0 0 0
10 1 4 -1.9634055319616905e-01 7.0853188444214075e+00 1.1452516185196384e+00 4.9634929556313105e+00 0 0 0
56 1 4 -3.3945109313381527e-01 5.5652707818195957e+00 2.1355805637008796e-01 2.0080757711552405e+01 0 0 -1
1 1 1 3.1603537142754839e-01 7.1333209837171552e+00 5.5604066556913989e-01 1.3128454503507743e+00 0 0 0
225 1 1 3.4701244290861011e-01 6.4914417823187645e+00 1.6079894078912309e+00 1.4045088002938799e+01 0 0 0
233 1 2 -2.0801915069502012e-02 6.0216558672557010e+00 1.0261261140861964e+00 1.6397614935246605e+01 0 0 0
234 1 4 -2.0845503542784488e-01 6.4409384488128207e+00 4.7931932624342566e-01 1.7485302729666266e+01 0 0 0
335 1 4 -2.0415989801291251e-01 1.2755704513830537e+01 9.0376442168348703e-01 1.0191755710506742e+01 0 0 0
58 1 2 -6.8767088517709019e-01 1.3174990502077838e+01 6.0112112561442066e-01 1.3794070136453467e+00 0 0 0
67 1 4 -2.3492131924246806e-01 1.2783711135693393e+01 3.1877917617595064e-01 3.9946827256634210e+00 0 0 0
5 1 2 -7.0925645100655033e-01 8.1746392629268136e+00 5.6021800056922433e-01 3.4910666108594923e-01 0 0 0
7 1 3 5.0311911419883448e-01 7.9304417119224908e+00 6.2839770384792892e-01 -6.8063452430260019e-01 0 0 0
8 1 1 9.9192619762247414e-02 7.6049070317595913e+00 6.7546557337935131e-01 2.6673830352531369e+00 0 0 0
229 1 2 -6.6500770193264525e-01 7.5837322747547224e+00 1.7992128848802924e+00 1.3086466883393909e+01 0 0 0
231 1 3 4.4060714215468333e-01 7.3757135906887470e+00 2.1177095310968941e+00 1.2073270327054695e+01 0 0 0
232 1 1 1.0041447804988123e-01 7.0236108466600609e+00 1.2201811640628413e+00 1.5326746988466571e+01 0 0 0
230 1 3 4.7183094560659478e-01 8.6335998038030830e+00 1.3589114065095496e+00 1.3404780783984874e+01 0 0 0
326 1 3 5.0739259562516092e-01 8.2272969429692147e+00 1.7366105996835044e+00 8.1956089424474161e+00 0 0 0
6 1 3 5.8053074664903714e-01 9.2444903432479961e+00 5.4645593509796253e-01 9.6574859233507349e-01 0 0 0
12 1 2 -3.4223075420775434e-02 9.0277667046626764e+00 7.2546398355216146e-01 2.8678188399210556e+00 0 0 0
13 1 4 -1.7495778729785402e-01 9.4609582033816224e+00 8.2069442214133437e-01 4.1009864168595360e+00 0 0 0
14 1 4 -3.4571385254193798e-01 9.9776748701814881e+00 8.1211239785840195e-01 1.8469045147480361e+00 0 0 0
100 1 2 -6.8301123704804323e-01 8.6191957698285115e+00 3.6378257611878406e-01 1.9548477814547912e+01 0 0 -1
101 1 3 5.0261261531989054e-01 8.3141890029909842e+00 4.8260378384337455e-01 1.8475328716944819e+01 0 0 0
102 1 3 5.0895899863601546e-01 7.9448870762066450e+00 8.0412300901458122e-02 2.0442249476814865e+01 0 0 -1
109 1 4 -2.5095031317174615e-01 8.1910327008777450e+00 -1.7629563348363009e-01 2.2093707053321250e+01 0 0 -1
236 1 2 -9.9049784376040867e-04 8.4949504645539999e+00 1.0085312662675836e+00 1.5541530299604091e+01 0 0 0
237 1 4 -2.3320106746072472e-01 8.7872116929564577e+00 7.3114967561242072e-01 1.6761995874298098e+01 0 0 0
324 1 2 -6.7826881434785824e-01 8.9385184326312288e+00 1.6198467180273388e+00 7.2859918133247668e+00 0 0 0
325 1 3 4.5117045444453219e-01 8.7930792064352055e+00 1.5459498677418000e+00 6.1827470911203903e+00 0 0 0
333 1 4 -2.4608976188881043e-01 8.6155937600482577e+00 1.8213392401376769e+00 9.8408329847295928e+00 0 0 0
99 1 1 3.6112551932834525e-01 1.0052226665123220e+01 3.8757218428316720e-01 1.9858271486041858e+01 0 0 -1
107 1 2 -1.9365167569643637e-02 9.4931974557412246e+00 -3.0879417147511190e-01 2.2221287596658950e+01 0 0 -1
108 1 4 -1.9389392373444558e-01 9.9920848569755165e+00 -6.8796298332660544e-01 2.3408873465724927e+01 0 0 -1
238 1 4 -2.6584560429132392e-01 9.4822390911569752e+00 1.1710632088130648e+00 1.4638405695898673e+01 0 0 0
331 1 2 -1.8259667070051486e-02 9.9096153034586543e+00 1.5114363563982578e+00 1.0026987918633630e+01 0 0 0
105 1 3 4.6891043334687688e-01 1.0966141239595459e+01 7.3248311350228335e-01 1.7961877904567547e+01 0 0 0
106 1 1 1.0288146725306199e-01 1.0491899139475890e+01 1.4304464281515994e-01 2.1241221784834558e+01 0 0 -1
323 1 1 3.5553088369316643e-01 1.0367169585400509e+01 1.6342738097329734e+00 7.5191172273543856e+00 0 0 0
329 1 3 4.3936423014726000e-01 1.1394582862177224e+01 1.7748485856248779e+00 5.5980053148588640e+00 0 0 0
332 1 4 -2.0746606066072501e-01 1.0368980679024082e+01 1.3007225455331275e+00 1.1220051287004541e+01 0 0 0
103 1 2 -7.0647531554148923e-01 1.1103421405580168e+01 6.1694397788754252e-01 1.8997446092105974e+01 0 0 0
327 1 2 -6.8183129592275571e-01 1.1431603190151126e+01 1.5250398754042167e+00 6.6314164157816000e+00 0 0 0
330 1 1 1.0946003754050726e-01 1.0879265879391816e+01 1.4810844494608779e+00 8.8995254571020634e+00 0 0 0
284 1 3 5.2987260277768633e-01 1.2341303922641117e+01 1.5046361219743161e+00 1.4813022310262207e+01 0 0 0
291 1 4 -3.4101563750411840e-01 -2.5121176405068306e+00 1.3791352340329430e+00 1.5979382322418711e+01 1 0 0
60 1 3 4.9466579353237827e-01 1.2527811452933118e+01 5.6220555177909759e-01 2.2923465218722980e+00 0 0 0
59 1 3 4.5442619534054451e-01 1.2866290720537334e+01 7.4941340176995808e-01 3.2593440634418114e-01 0 0 0
110 1 2 -3.1279106955029917e-02 1.1909690017597411e+01 3.3104301481435394e-01 2.1491337692384597e+01 0 0 -1
283 1 3 4.4915362541588894e-01 1.2032007533816564e+01 1.5945116527587069e+00 1.2820315383897510e+01 0 0 0
328 1 3 5.5448322746544232e-01 1.2575479616106803e+01 1.4253966314704780e+00 7.1752898089938295e+00 0 0 0
334 1 2 -3.4708174547248713e-02 1.2309965373121591e+01 1.2759803789620581e+00 9.0401572887993407e+00 0 0 0
282 1 2 -6.7475190289790166e-01 -2.3022179715125244e+00 1.4164304229699312e+00 1.3591496573239917e+01 1 0 0
72 1 2 -6.8361987298396176e-01 -2.9743465355500787e+00 4.8152075455579624e+00 9.3821757061207567e+00 0 0 0
74 1 3 5.0634057584433634e-01 -2.6383462103837667e+00 4.5280941077516097e+00 8.3562394510184923e+00 0 0 0
258 1 3 5.4250411166088630e-01 -2.4840218050490055e+00 4.8069939904121401e+00 1.7085573096372535e+01 0 0 0
264 1 2 -1.6702971499547879e-02 -3.2737745517447134e+00 4.6912483630410051e+00 1.4884202968285752e+01 0 0 0
296 1 2 -6.8000158657971876e-01 -3.3848109209186186e+00 3.7972164137090845e+00 2.1708665497360485e+01 0 0 0
298 1 3 4.9711925708465160e-01 -3.0711294784100742e+00 3.8255666758228317e+00 2.0624651884770426e+01 0 0 0
40 1 2 -4.6568349753993002e-02 1.2258098741087554e+01 3.8526485265853552e+00 2.7042427415141979e+00 -1 0 0
73 1 3 4.5925745864493439e-01 -2.4224725544712138e+00 5.0328278547351308e+00 1.0337527497705031e+01 0 0 0
297 1 3 4.6386092950040814e-01 -2.9089869144495175e+00 3.6053624023141300e+00 2.2677879716015585e+01 0 0 -1
34 1 3 5.7562977611381605e-01 -2.2142961103068237e+00 4.2654294635355630e+00 4.5220722476046262e+00 0 0 0
262 1 4 -2.2733437016798116e-01 -2.2522289141731813e+00 5.0990316314901643e+00 1.2263779828513108e+01 0 0 0
38 1 4 -2.3199220697832351e-01 -1.8266887312644391e+00 3.5677099913472370e+00 -5.1987467730656767e-02 0 0 0
29 1 1 3.1763545040162805e-01 -4.7812464445425873e-01 4.4558284153571011e+00 3.2836776932963669e+00 0 0 0
33 1 2 -6.6865517006892539e-01 -9.9530616516324433e-01 4.5059005766813591e+00 4.5838476409610704e+00 0 0 0
35 1 3 4.3040634839046149e-01 -2.2253735305582445e-01 4.8346172395981037e+00 5.3414505681419788e+00 0 0 0
253 1 1 3.4023603722602896e-01 -9.0456131856242306e-01 4.6897689058480134e+00 1.5660982537786413e+01 0 0 0
257 1 2 -7.0325605688817205e-01 -1.3895621543503140e+00 4.6131712615305371e+00 1.7024905949059612e+01 0 0 0
260 1 1 9.9745868010820110e-02 -1.8415237545206464e+00 4.7876241202902197e+00 1.4608166351491318e+01 0 0 0
261 1 2 6.5610466727648448e-03 -1.3079038413642707e+00 4.9943337231655081e+00 1.3142399722360921e+01 0 0 0
36 1 1 1.0438416900804331e-01 -1.3780732293931259e+00 4.0055591349117341e+00 2.2298257175277301e+00 0 0 0
37 1 2 -1.1676094047816353e-02 -8.9006779964024574e-01 3.7197880870970668e+00 8.5178994100771122e-01 0 0 0
259 1 3 4.9124508854329524e-01 -5.5780107253520317e-01 4.3721957179507696e+00 1.7735033942817306e+01 0 0 0
42 1 4 -3.7466759972812480e-01 1.1805584878773438e+01 4.2228323921535837e+00 3.9974944400235772e+00 0 0 0
27 1 4 -1.9140644550861077e-01 -1.2840005336466831e-01 5.0695944382331088e+00 7.4829188976162744e+00 0 0 0
251 1 4 -1.7681506783917614e-01 -4.4331791921374597e-01 4.3650747190260004e+00 1.9915707524427738e+01 0 0 0
26 1 2 -8.6930960951000606e-03 6.8513705264477931e-01 4.8598052815626520e+00 8.5361070837587096e+00 0 0 0
28 1 4 -2.4225810757791141e-01 6.7958747067113467e-02 4.7849805579141780e+00 9.6926427628174920e+00 0 0 0
30 1 2 -6.4248187914200672e-01 9.1131453822893971e-01 4.6637797085525001e+00 2.8175120249590435e+00 0 0 0
39 1 4 -2.4774956589268632e-01 3.9535252390860776e-01 3.6835883439749075e+00 4.8959146097523631e-01 0 0 0
254 1 2 -6.5107549354634187e-01 4.9330613125151257e-01 4.7227396201326011e+00 1.5239898480842157e+01 0 0 0
263 1 4 -2.7847789169717457e-01 -5.7481240217462481e-02 4.9202049920464814e+00 1.2749151834357635e+01 0 0 0
252 1 4 -2.3050358285988998e-01 -7.2787806469898353e-03 4.0845041699606055e+00 2.2162522641510652e+01 0 0 0
20 1 3 4.4114119791290884e-01 1.1786327895340618e+00 5.1541834681991041e+00 1.0790666687058263e+01 0 0 0
255 1 3 4.2332339881772030e-01 1.2516458593203703e+00 4.4005245293595712e+00 1.6061553147706892e+01 0 0 0
256 1 3 4.7145138226588257e-01 7.4017913324058604e-01 4.9678330853428045e+00 1.4179783114403950e+01 0 0 0
250 1 2 -3.3105117857182634e-03 3.8073957763376254e-01 3.9571225415543791e+00 2.0908799907429632e+01 0 0 0
32 1 3 4.5526547774469273e-01 1.2408147148980020e+00 4.1951583073238936e+00 1.8519865425642954e+00 0 0 0
244 1 3 4.5750577080505778e-01 1.1500200955036992e+00 3.5197831352486411e+00 2.3172801569518739e+01 0 0 -1
31 1 3 3.9842760207607686e-01 1.5561165766054950e+00 4.9955090772259405e+00 3.6902113743360774e+00 0 0 0
24 1 4 -1.8739119664464285e-01 2.2005516550397362e+00 4.5116009149885246e+00 6.0192515962826079e+00 0 0 0
22 1 1 1.0848483119278277e-01 2.1705251399526775e+00 4.7450610079937219e+00 8.3530664197635414e+00 0 0 0
246 1 1 1.0444701307290276e-01 1.8113266694679124e+00 3.7592827177633588e+00 2.0500442380020612e+01 0 0 0
248 1 4 -2.1932074327550372e-01 1.2945002640262608e+00 3.8167667307809623e+00 1.8132697566149112e+01 0 0 0
19 1 2 -6.5615209035813826e-01 2.3485368556951296e+00 4.8879691721780141e+00 1.0796671148908928e+01 0 0 0
23 1 2 -1.9881027477279246e-02 2.8728749081923102e+00 4.6963500619065837e+00 7.1063846732210880e+00 0 0 0
15 1 1 3.5980271183460322e-01 3.0744000096011010e+00 4.8634982884112494e+00 9.5077203155056420e+00 0 0 0
21 1 3 4.1854287168103077e-01 2.8877942221258976e+00 5.0704262488412990e+00 1.1693452494166779e+01 0 0 0
243 1 2 -6.6062339339794962e-01 2.2863169758269613e+00 3.3778596107676937e+00 2.2930806704183532e+01 0 0 -1
305 1 4 -2.4722005141456588e-01 -3.6082486368955662e+00 4.3391850879108311e+00 1.9088626167431091e+01 0 0 0
247 1 2 -4.5773646669966597e-03 2.2411178604834254e+00 3.7974531549787001e+00 1.9074810713582124e+01 0 0 0
239 1 1 3.3974202703923828e-01 2.7436744991933590e+00 3.5299300679954202e+00 2.1540098159736136e+01 0 0 0
245 1 3 4.3667906469750284e-01 3.0666855470331247e+00 3.0586499712558433e+00 2.3585278025835468e+01 0 0 -1
321 1 4 -2.0695777282949210e-01 3.6058499444235954e+00 4.9950120922317200e+00 1.3667933181820677e+01 0 0 0
322 1 4 -2.4340746159118637e-01 3.7994952005166454e+00 4.6964766060657395e+00 1.5915196429070857e+01 0 0 0
25 1 4 -3.8913966377480763e-01 4.2995492702760387e+00 4.7112094438611063e+00 7.0361389356392019e+00 0 0 0
96 1 2 -2.6622877867770612e-02 5.2264716617958502e+00 4.1954444265811865e+00 2.3993434199925776e+00 0 0 0
97 1 4 -1.8347239510837751e-01 4.4363615026681504e+00 3.7086689553126932e+00 1.4657222780301811e+00 0 0 0
98 1 4 -3.5132291840175356e-01 4.6469050784910504e+00 4.2647568118406474e+00 3.6819146230592086e+00 0 0 0
240 1 2 -6.3389226693117939e-01 4.1072015119934093e+00 3.4917990719328862e+00 2.1091574363248423e+01 0 0 0
249 1 4 -2.6750877812646451e-01 3.4759862647212998e+00 3.8965584257426658e+00 1.8605484764976108e+01 0 0 0
16 1 2 -7.3788576772132830e-01 4.4236697026860217e+00 4.7524215799161373e+00 9.2631571585405066e+00 0 0 0
17 1 3 4.8681833644766964e-01 5.1179101595439764e+00 4.9051978211486551e+00 1.0016484643985441e+01 0 0 0
18 1 3 6.1686584136888623e-01 4.6574385777054879e+00 4.8495401646084373e+00 8.0425734543511087e+00 0 0 0
90 1 3 5.9308238899246757e-01 5.5391853341118882e+00 4.4002625283857491e+00 4.3661490819034450e+00 0 0 0
314 1 3 5.0909445577884738e-01 5.0114075550566444e+00 4.4802075024991348e+00 1.7071122189626717e+01 0 0 0
318 1 4 -1.7716122958511260e-01 5.8476588875804127e+00 5.4324944157285113e+00 1.2243109556322006e+01 0 0 0
242 1 3 4.4175888941204294e-01 4.2932453052954811e+00 3.8780547727468528e+00 1.9987536051603975e+01 0 0 0
320 1 2 2.7234447972109069e-03 4.3433191195648426e+00 4.9499193053387973e+00 1.4764322681886004e+01 0 0 0
81 1 4 -2.7199620072130865e-01 1.1642174976326283e+01 4.3134313617169457e+00 6.9272197337892152e+00 -1 0 0
41 1 4 -1.6722098267616356e-01 1.1470611542672657e+01 3.3826338596972843e+00 1.8403669298269865e+00 0 0 0
266 1 4 -2.4345932460730957e-01 -3.7393176423078640e+00 4.4524249744421116e+00 1.6152391641166254e+01 1 0 0
265 1 4 -2.0044165202912420e-01 1.0889588857220811e+01 4.7565951206642687e+00 1.3882489187653881e+01 0 0 0
71 1 1 3.3802534380181037e-01 1.0572770096851347e+01 4.9456463858130126e+00 9.5784108715233689e+00 0 0 0
241 1 3 4.1192328456496025e-01 4.8987204105478153e+00 2.9850812607712762e+00 2.1719970992041791e+01 0 0 -1
92 1 1 1.0367203030374889e-01 6.6529273054747593e+00 4.3036202914082500e+00 2.1972056193329501e+00 0 0 0
94 1 4 -2.0222469381974542e-01 6.5036866569202196e+00 4.1784469082941023e+00 -1.5933361516192734e-01 0 0 0
316 1 1 1.0209232093111255e-01 5.8686729746646087e+00 4.9807227432523957e+00 1.4621720216080403e+01 0 0 0
83 1 4 -1.9672938861158251e-01 7.5717010936719404e+00 5.2301897662394214e+00 7.5782730357729413e+00 0 0 0
84 1 4 -3.6031894631634848e-01 7.7747212416855636e+00 5.2239671716227969e+00 9.8793649593403696e+00 0 0 0
307 1 4 -1.8947660011299250e-01 7.3027740402795631e+00 3.4808655858089717e+00 1.9535317486463853e+01 0 0 0
85 1 1 3.4450683337570087e-01 7.5060049784283827e+00 4.5026742009140888e+00 3.3645273611920743e+00 0 0 0
89 1 2 -7.1178796887176654e-01 6.7531102919431003e+00 4.4361977157721624e+00 4.5673183057955997e+00 0 0 0
93 1 2 -2.0033922412160583e-02 7.3249653143870610e+00 4.2040611353299617e+00 9.0158724043226313e-01 0 0 0
95 1 4 -2.6501453817576592e-01 8.6438055385035710e+00 4.3442972085717955e+00 6.7698664960816268e-01 0 0 0
309 1 1 3.1880738094243394e-01 6.7423081086511223e+00 4.8148036471695947e+00 1.5757313467201520e+01 0 0 0
317 1 2 -2.9711432676124309e-02 6.5264602207450615e+00 5.2769013085873686e+00 1.3356553521184800e+01 0 0 0
91 1 3 4.5370192405612736e-01 7.2299543804944459e+00 4.4559993548649963e+00 5.5156212625802947e+00 0 0 0
306 1 2 -1.1543220534312695e-02 8.0098758049616290e+00 3.4903803967947704e+00 2.0642589242494289e+01 0 0 0
308 1 4 -3.6747305019561705e-01 7.4185771025853438e+00 3.1092641373211936e+00 2.1857071062976786e+01 0 0 0
313 1 2 -7.1054939918919824e-01 6.0846623949262568e+00 4.7559871518618282e+00 1.7085430689280699e+01 0 0 0
315 1 3 4.4243644850119740e-01 6.8265902460345043e+00 4.6319479519496642e+00 1.7866496303995355e+01 0 0 0
80 1 4 -2.4031913333569033e-01 9.6470985115094336e+00 4.9966123715155071e+00 6.0136858031292446e+00 0 0 0
82 1 2 -4.1284888978700501e-02 8.3487309087864077e+00 5.1126172965854968e+00 8.5728456239472823e+00 0 0 0
86 1 2 -6.6273501101373855e-01 8.9471227554587589e+00 4.6213026821493886e+00 3.2405728128574749e+00 0 0 0
88 1 3 4.8548203467376999e-01 9.2942297077522920e+00 4.4489360684660655e+00 2.1067892628107856e+00 0 0 0
310 1 2 -6.9943431928996425e-01 8.1041073072495724e+00 4.7129735656999028e+00 1.5406923580665769e+01 0 0 0
319 1 4 -3.6815273448393226e-01 7.9082526869287051e+00 5.1376179588301456e+00 1.3161596402426525e+01 0 0 0
300 1 3 5.9980076538642668e-01 8.2102365496293590e+00 3.2535626969548757e+00 2.2676081215153971e+01 0 0 -1
312 1 3 6.0877857126665069e-01 8.2830299441797308e+00 4.9704064671118013e+00 1.4251735073487151e+01 0 0 0
76 1 3 5.9289711249988342e-01 8.6714277769566621e+00 5.1534245462184032e+00 1.0582358116914133e+01 0 0 0
87 1 3 4.8403433965471937e-01 9.4653155074470341e+00 4.8581401184835862e+00 4.1889726870211010e+00 0 0 0
304 1 4 -1.9527602903233521e-01 9.3245187292571785e+00 4.1082980517915404e+00 1.8247392057286895e+01 0 0 0
311 1 3 4.5509006873514907e-01 8.7339028258077942e+00 4.6586885594922638e+00 1.6329953345251479e+01 0 0 0
160 1 3 5.9595979966220758e-01 9.1417552504294299e+00 7.4772171847589624e+00 1.0253543664006859e-01 -1 0 1
302 1 1 1.0503711675758567e-01 9.4420892029648229e+00 3.6967824299265626e+00 2.0554901559841714e+01 0 0 0
77 1 3 4.4186054538516967e-01 1.0419679095291068e+01 4.9535324316714222e+00 1.1745679507300052e+01 0 0 0
299 1 2 -7.0770858206251264e-01 9.4057399352552977e+00 3.2832301810451154e+00 2.2927270392920278e+01 0 0 -1
295 1 1 3.1940084252259082e-01 1.0171007459768544e+01 3.5855214412198597e+00 2.1778461728883933e+01 0 0 0
75 1 2 -6.8775743216125029e-01 9.8912804413072877e+00 5.0657857700469355e+00 1.0782632042834068e+01 0 0 0
79 1 2 -9.8794106497803146e-03 1.0388163604058368e+01 4.7631473510361939e+00 7.0576650588628667e+00 0 0 0
78 1 1 9.0372747168639966e-02 9.7630813102165828e+00 4.9845036853863016e+00 8.3643092766011957e+00 0 0 0
301 1 3 4.6413501882494146e-01 1.1400537833220119e+01 4.2691455684425019e+00 -7.4430561635517356e-01 0 0 0
303 1 2 -9.0975986254570318e-03 1.0105441575873490e+01 4.0259445230130311e+00 1.9258992082342161e+01 0 0 0
167 1 4 -2.0144006478323695e-01 9.7207210696781257e+00 7.5789186908385870e+00 3.2766630784385624e+00 -1 0 0
120 1 1 1.1589613920075689e-01 -3.9423327782944746e+00 8.2027025130927633e+00 8.2846702314379215e+00 0 0 0
341 1 2 -6.7834328702038849e-01 -3.9462710389280762e+00 7.7519362161054906e+00 1.8347805688743673e+01 0 0 0
343 1 3 4.2814953523204136e-01 -4.1306343721605172e+00 8.0409344550130086e+00 1.7293199110258040e+01 0 0 0
344 1 1 9.9513501020264655e-02 -4.5665813895464513e+00 7.2961974922430946e+00 2.0586556399484738e+01 0 0 0
117 1 2 -6.0835400789445881e-01 -3.5936981263935754e+00 8.1741037184786371e+00 5.8319647793573859e+00 0 0 0
119 1 3 4.3109255804905178e-01 -4.0120064112932834e+00 7.9173238222436959e+00 4.8361431039475535e+00 0 0 0
438 1 3 4.8217574073744174e-01 -3.0984799103913425e+00 8.0234957327550589e+00 1.3644854958196518e+01 0 0 0
437 1 3 4.6140561824074661e-01 -2.6066050396025244e+00 8.4740899954410160e+00 1.1659540791493715e+01 0 0 0
213 1 3 4.4969516290533451e-01 -1.8507751471032852e+00 8.2285502043403369e+00 -6.4867666632718501e-01 0 0 1
214 1 3 4.8769639405200393e-01 -2.4215864770012514e+00 7.9215304587810520e+00 1.2449113085636516e+00 0 0 0
124 1 2 -1.5934185877424210e-02 -2.4835742515938497e+00 8.2603065077634739e+00 8.3996699917516509e+00 0 0 0
212 1 2 -6.7652009209757136e-01 -1.6602829775523396e+00 7.9856209930804267e+00 4.1057736598915628e-01 0 0 0
118 1 3 4.4822662478281700e-01 -2.3558639768127230e+00 8.2548359672487592e+00 6.2023177063857231e+00 0 0 0
125 1 4 -2.1097523365003726e-01 -2.1049087453538289e+00 8.4529455641976128e+00 9.6358783724249548e+00 0 0 0
126 1 4 -2.7311306297055882e-01 -1.5765881921657336e+00 8.5198796865178252e+00 7.4163270673702026e+00 0 0 0
221 1 4 -2.2390878421949370e-01 -2.0349209427318833e+00 8.1208625513711574e+00 2.9160520380716659e+00 0 0 0
342 1 3 5.6639986870500691e-01 -2.8178825491224426e+00 7.5736460141996007e+00 1.8796889785040435e+01 0 0 0
348 1 2 -9.7501004812985230e-03 -3.1284288898732582e+00 7.1979000932831845e+00 2.0797601017729594e+01 0 0 0
349 1 4 -2.1792677982873973e-01 -2.6636197540052695e+00 6.9814594187390719e+00 2.1945792858512082e+01 0 0 0
350 1 4 -3.5019098899714635e-01 -2.1833794408043947e+00 7.2746067305477631e+00 1.9715997377780685e+01 0 0 0
436 1 2 -6.7854935568341335e-01 -2.4284935202935323e+00 8.2980957330279850e+00 1.2718363592883380e+01 0 0 0
445 1 4 -2.5983381146185103e-01 -2.8304779930648061e+00 7.6899317814988200e+00 1.5197211293466701e+01 0 0 0
122 1 4 -2.0218901969867625e-01 -4.3782880710537491e+00 8.7177064957613268e+00 1.0529471485491479e+01 0 0 0
146 1 3 6.2314240172611879e-01 -4.2363351483050513e+00 1.1747469927298678e+01 9.6398243089331892e+00 0 0 0
184 1 2 -6.2691902292091639e-01 -4.9861575121590658e+00 1.2009699939601216e+01 1.5596696890202622e+01 0 0 0
408 1 2 -6.5967670966297098e-01 -4.7439621676136232e+00 1.1766288310192113e+01 2.9231130066694773e+00 0 0 1
153 1 4 -1.5545126932532941e-01 -5.0659906741570362e+00 1.1469597173084257e+01 6.6052550985819325e+00 1 0 0
377 1 4 -1.9369190106596818e-01 -5.8005753977208876e+00 1.1070873185873957e+01 1.8885318313804056e+01 1 0 0
152 1 2 -4.2240997838870448e-02 -4.3444863610793441e+00 1.1755419622656877e+01 7.6720090139197712e+00 0 0 0
370 1 3 6.4806595628928443e-01 -5.1635796327412873e+00 1.1113443330315111e+01 2.1979403431543201e+01 0 0 0
154 1 4 -3.7518917339322233e-01 -5.0468128326707964e+00 1.1746363662303164e+01 8.9181815297271196e+00 1 0 0
378 1 4 -3.7651338816831614e-01 -5.9521782266676908e+00 1.1089203416698613e+01 2.1196759071696487e+01 1 0 0
415 1 2 -6.6472664929441740e-03 9.5295420327939730e+00 1.1148662651438691e+01 2.4632237237559473e-01 0 0 1
191 1 2 -1.3697239833770143e-02 -5.7294079828600406e+00 1.2174947691513776e+01 1.2958298528879316e+01 1 0 0
193 1 4 -2.4605048756736603e-01 -4.5169861023574684e+00 1.1634835057280544e+01 1.3131208274667530e+01 0 0 0
417 1 4 -2.5464902339848111e-01 -4.2315873507653095e+00 1.1379056240994409e+01 4.4744166608979552e-01 0 0 1
145 1 2 -6.9735998457335124e-01 -3.0966624786729593e+00 1.1663760080162426e+01 1.0100843263058708e+01 0 0 0
148 1 1 1.0100926713528111e-01 -2.9179162525760711e+00 1.1751942315408964e+01 7.7266078159375660e+00 0 0 0
185 1 3 4.1979242374422715e-01 -4.6841773842321395e+00 1.2233884582921153e+01 1.6624273409231243e+01 0 0 0
186 1 3 4.5785373661484541e-01 -4.4508849364238143e+00 1.1448820151430493e+01 1.4659794088433030e+01 0 0 0
376 1 2 -1.6904460587797782e-02 -5.2068751199215804e+00 1.0940683144872970e+01 2.0021142885435864e+01 0 0 0
409 1 3 4.3223131038373763e-01 -4.4162970963297132e+00 1.2241566403590575e+01 3.8473694836695937e+00 0 0 0
410 1 3 4.5594047439431939e-01 -4.0355159840145323e+00 1.1782876520842095e+01 2.0049442897381655e+00 0 0 1
183 1 1 3.0439922636217454e-01 -6.4038979374722711e+00 1.2148439197151642e+01 1.5322086784286583e+01 1 0 0
189 1 3 4.3966125152189545e-01 7.8624604456330491e+00 1.1728640706510500e+01 1.7290426612265453e+01 0 0 0
346 1 4 -1.8224394104229932e-01 9.7743310464299888e+00 6.8344780280085313e+00 2.2833373125980543e+01 -1 0 0
219 1 2 -3.8249351631230513e-03 -7.6604627816012982e-01 7.8994633824107465e+00 3.1403140724721892e+00 0 0 0
435 1 1 3.2730067998815504e-01 -1.0167141740940240e+00 8.5702564262397871e+00 1.3065851703287425e+01 0 0 0
444 1 4 -1.7758651318090901e-01 -1.0527535457921791e+00 7.6091994198142716e+00 1.6608905739181026e+01 0 0 0
211 1 1 3.4535611043476322e-01 -2.1086916481244589e-01 7.9675176524269498e+00 6.7247197653458257e-01 0 0 0
217 1 3 4.6983564779992776e-01 -8.7161384216373627e-01 7.0625127576421329e+00 2.3173410817876839e+01 0 0 0