LAMMPS data file via write_data, version 15 Apr 2020, timestep = 0

4032 atoms
8 atom types

0.0000000000000000e+00 1.0000000000000000e+02 xlo xhi
0.0000000000000000e+00 1.0000000000000000e+02 ylo yhi
0.0000000000000000e+00 1.0000000000000000e+02 zlo zhi

Masses

1 1.00794
2 1
3 1
4 1
5 1
6 12.0107
7 14.0067
8 15.9994

Atoms # full

43 1 6 3.0114399220755861e-01 2.9315186079320359e+01 5.6105988852004600e+01 2.4846526395943805e+01 0 0 0
44 1 7 -5.3879248920232248e-01 2.7942085539313513e+01 5.6025060938516731e+01 2.4634874521145630e+01 0 0 0
45 1 1 2.6200054991767441e-01 2.7713473986140080e+01 5.5634696768761174e+01 2.3695511065847469e+01 0 0 0
47 1 7 -5.3171543168405211e-01 3.0154652013539909e+01 5.5696694888505171e+01 2.3822623243618384e+01 0 0 0
48 1 1 3.3650153354872808e-01 3.1204569561730853e+01 5.5778250691628273e+01 2.4097904063597657e+01 0 0 0
49 1 1 2.5802409181936703e-01 2.9614433112726928e+01 5.5399868087637799e+01 2.2979050411159513e+01 0 0 0
99 1 6 2.9870500369243624e-01 3.6247123557172472e+01 5.6108588862998637e+01 2.4777476706110360e+01 0 0 0
100 1 7 -5.1895022676376956e-01 3.4874035545326066e+01 5.6024041243177010e+01 2.4568599666514285e+01 0 0 0
101 1 1 2.6361634163201386e-01 3.4656073751030924e+01 5.5639791316536900e+01 2.3624709522824482e+01 0 0 0
103 1 7 -5.3075410782244115e-01 3.7086636894578447e+01 5.5698136748465210e+01 2.3754247313097643e+01 0 0 0
105 1 1 2.5726883023911395e-01 3.6549455607825756e+01 5.5401372843586159e+01 2.2909368442597806e+01 0 0 0
104 1 1 3.3610280349386812e-01 3.8137640807195893e+01 5.5780478829708230e+01 2.4027226063521336e+01 0 0 0
155 1 6 2.9888046433902926e-01 4.3186256008583406e+01 5.6108680292759793e+01 2.4703654408678105e+01 0 0 0
156 1 7 -5.1829002765085264e-01 4.1813161908291455e+01 5.6024095361188778e+01 2.4494735925451195e+01 0 0 0
157 1 1 2.6346606883712059e-01 4.1595236107846723e+01 5.5639822909853713e+01 2.3550835861887126e+01 0 0 0
161 1 1 2.5727551819103611e-01 4.3488418219644203e+01 5.5401377562746873e+01 2.2835497791064533e+01 0 0 0
159 1 7 -5.3089066159628473e-01 4.4025677248858457e+01 5.5698201372381654e+01 2.3680317683997941e+01 0 0 0
160 1 1 3.3606115333939662e-01 4.5076708551325325e+01 5.5780398990366052e+01 2.3953120786453411e+01 0 0 0
212 1 7 -5.1826349102091007e-01 4.8752292612574422e+01 5.6024085638989362e+01 2.4420783447441281e+01 0 0 0
213 1 1 2.6347806284917663e-01 4.8534361788362659e+01 5.5639814636229886e+01 2.3476883261571345e+01 0 0 0
211 1 6 2.9893092373201541e-01 5.0125399426604517e+01 5.6108695034002032e+01 2.4629672346913978e+01 0 0 0
215 1 7 -5.3088187349311122e-01 5.0964797810939785e+01 5.5698229889744965e+01 2.3606307424751808e+01 0 0 0
216 1 1 3.3605032979171867e-01 5.2015824615384211e+01 5.5780396626016781e+01 2.3879092084913978e+01 0 0 0
217 1 1 2.5728480607155907e-01 5.0427518108894226e+01 5.5401385509495462e+01 2.2761507933161212e+01 0 0 0
268 1 7 -5.1832666685772055e-01 5.5691467239267737e+01 5.6024080811412006e+01 2.4346734790022033e+01 0 0 0
269 1 1 2.6342771916951968e-01 5.5473549745450640e+01 5.5639778951324416e+01 2.3402842988345771e+01 0 0 0
267 1 6 2.9904537668877362e-01 5.7064566066866952e+01 5.6108709973188731e+01 2.4555652891096102e+01 0 0 0
271 1 7 -5.3045583897475335e-01 5.7903966912249921e+01 5.5698209035334870e+01 2.3532309431025613e+01 0 0 0
272 1 1 3.3617261718159680e-01 5.8954958640625371e+01 5.5780528466337380e+01 2.3805167812449024e+01 0 0 0
273 1 1 2.5730541257323736e-01 5.7366747981501661e+01 5.5401370398572325e+01 2.2687468173163886e+01 0 0 0
325 1 1 2.6163112544357420e-01 6.2411630661125209e+01 5.5639374415372387e+01 2.3327721952186231e+01 0 0 0
323 1 6 2.9529142749349030e-01 6.4000909413990016e+01 5.6108235047641500e+01 2.4481727269785665e+01 0 0 0
324 1 7 -5.1964073156950807e-01 6.2628635421503269e+01 5.6023938405973460e+01 2.4271647776954961e+01 0 0 0
327 1 7 -5.2343352448146885e-01 6.4841332322549263e+01 5.5698614216181454e+01 2.3458966074902946e+01 0 0 0
328 1 1 3.4830758971123071e-01 6.5896449335571631e+01 5.5775975053581469e+01 2.3723412509597086e+01 0 0 0
329 1 1 2.5914107677621617e-01 6.4305934942438668e+01 5.5401387032483434e+01 2.2613601052733777e+01 0 0 0
381 1 1 2.6465501702493266e-01 2.7714095586650760e+01 6.2258613093369007e+01 2.3706835716481152e+01 0 0 0
383 1 7 -5.1765607175838879e-01 3.0156812637977051e+01 6.2353569103287292e+01 2.3819083571379224e+01 0 0 0
384 1 1 3.4566872450689362e-01 3.1205636675355063e+01 6.2386733768652370e+01 2.4113964410732358e+01 0 0 0
385 1 1 2.5771001780510011e-01 2.9615405085469366e+01 6.2025494014389928e+01 2.2987646949328241e+01 0 0 0
437 1 1 2.6898738767166053e-01 3.4655330164101649e+01 6.2256784230358974e+01 2.3638924085315576e+01 0 0 0
439 1 7 -5.1780778343870781e-01 3.7088523345879558e+01 6.2357091965831813e+01 2.3749559071203009e+01 0 0 0
441 1 1 2.5667851685539422e-01 3.6549755739034943e+01 6.2024549299865456e+01 2.2919077135009747e+01 0 0 0
440 1 1 3.4478315143160976e-01 3.8138420837590694e+01 6.2388559217058500e+01 2.4043541912618096e+01 0 0 0
493 1 1 2.6879755706318886e-01 4.1594487993168201e+01 6.2256768374904404e+01 2.3565096415424666e+01 0 0 0
497 1 1 2.5667740766205344e-01 4.3488705932693229e+01 6.2024597278417374e+01 2.2845185512099576e+01 0 0 0
495 1 7 -5.1807146239666424e-01 4.4027545441641344e+01 6.2357138324659211e+01 2.3675633710992692e+01 0 0 0
496 1 1 3.4469725255296335e-01 4.5077479591724838e+01 6.2388523250264235e+01 2.3969403550697230e+01 0 0 0
549 1 1 2.6882937258608741e-01 4.8533604920629742e+01 6.2256763560696392e+01 2.3491151647863123e+01 0 0 0
270 1 1 3.7374500126049337e-01 5.5095402614963689e+01 5.6385217418834799e+01 2.5115316676556343e+01 0 0 0
551 1 7 -5.1807313443157310e-01 5.0966657343193980e+01 6.2357168237037314e+01 2.3601622082359839e+01 0 0 0
552 1 1 3.4466974239675630e-01 5.2016584407073481e+01 6.2388534968247100e+01 2.3895366081877871e+01 0 0 0
553 1 1 2.5668977487757560e-01 5.0427803106858164e+01 6.2024597692436465e+01 2.2771198963075857e+01 0 0 0
605 1 1 2.6877331005608973e-01 5.5472807390552283e+01 6.2256735162982373e+01 2.3417108629444069e+01 0 0 0
326 1 1 3.7335486387091854e-01 6.2034100912033828e+01 5.6384606107561808e+01 2.5041980975713180e+01 0 0 0
607 1 7 -5.1762682621592770e-01 5.7905797445486975e+01 6.2357124641532927e+01 2.3527629209241994e+01 0 0 0
608 1 1 3.4464794948561012e-01 5.8955668845149155e+01 6.2388693746745325e+01 2.3821423699144908e+01 0 0 0
609 1 1 2.5672778140328012e-01 5.7366995059792067e+01 6.2024555789107566e+01 2.2697168972953396e+01 0 0 0
661 1 1 2.6687914697090598e-01 6.2410726350302312e+01 6.2255532608646398e+01 2.3341982856198168e+01 0 0 0
663 1 7 -5.0991255152401382e-01 6.4842936816452436e+01 6.2354321198682243e+01 2.3455751564954607e+01 0 0 0
664 1 1 3.5653049677988469e-01 6.5897485703038768e+01 6.2385988428939136e+01 2.3738624453617224e+01 0 0 0
665 1 1 2.5938897816839435e-01 6.4306552515194596e+01 6.2025643298818181e+01 2.2622565328134620e+01 0 0 0
379 1 6 3.1307565507784119e-01 2.9317194957660867e+01 6.2745214506093937e+01 2.4849911735649780e+01 0 0 0
380 1 7 -5.2238727094416826e-01 2.7943596343962430e+01 6.2681288559691275e+01 2.4632257994890537e+01 0 0 0
721 1 1 2.5766594497392736e-01 2.9615435718040906e+01 6.8668922451113360e+01 2.2984652118450004e+01 0 0 0
435 1 6 3.1121557321356996e-01 3.6248171461917572e+01 6.2748103035027732e+01 2.4780231259437180e+01 0 0 0
436 1 7 -4.9773602767565595e-01 3.4874553662452819e+01 6.2680520922829601e+01 2.4565723203796061e+01 0 0 0
777 1 1 2.5687965400764756e-01 3.6549777857110044e+01 6.8668405159997036e+01 2.2915865551603268e+01 0 0 0
491 1 6 3.1137050544328748e-01 4.3187295263219831e+01 6.2748181722498131e+01 2.4706403150901743e+01 0 0 0
492 1 7 -4.9702089257727194e-01 4.1813683805683063e+01 6.2680636862974410e+01 2.4491856028241831e+01 0 0 0
833 1 1 2.5686927652250369e-01 4.3488739512699532e+01 6.8668468199817625e+01 2.2841964607503485e+01 0 0 0
548 1 7 -4.9693704841979036e-01 4.8752814581923374e+01 6.2680610282347750e+01 2.4417917677267027e+01 0 0 0
547 1 6 3.1143851989819432e-01 5.0126434190416212e+01 6.2748191946963907e+01 2.4632425586303086e+01 0 0 0
604 1 7 -4.9697246755060059e-01 5.5691982000759630e+01 6.2680617099103060e+01 2.4343871134530492e+01 0 0 0
606 1 1 3.8507027928976789e-01 5.5094716087504537e+01 6.2980401412586950e+01 2.5138363370229577e+01 0 0 0
889 1 1 2.5688508448312153e-01 5.0427830849448327e+01 6.8668470962365603e+01 2.2767974483422929e+01 0 0 0
603 1 6 3.1166137729853094e-01 5.7065597248579820e+01 6.2748207448708378e+01 2.4558424105995048e+01 0 0 0
662 1 1 3.8487613477857641e-01 6.2033549826616763e+01 6.2979757675730546e+01 2.5064860940766476e+01 0 0 0
945 1 1 2.5694897330582522e-01 5.7367035372683048e+01 6.8668408633602738e+01 2.2693940928650537e+01 0 0 0
659 1 6 3.0908714031873152e-01 6.4001873250778672e+01 6.2747555150823850e+01 2.4484527244941454e+01 0 0 0
660 1 7 -4.9709224875129621e-01 6.2629216502417677e+01 6.2680806776264617e+01 2.4268361116970354e+01 0 0 0
1001 1 1 2.5949295503871628e-01 6.4306641470259464e+01 6.8669760919036634e+01 2.2619326873372721e+01 0 0 0
715 1 6 3.1443364325228024e-01 2.9316658923379627e+01 6.9378403169346086e+01 2.4850918461630034e+01 0 0 0
716 1 7 -5.1904931081980199e-01 2.7943275859464389e+01 6.9310907030103678e+01 2.4635467252090848e+01 0 0 0
717 1 1 2.6467994071268641e-01 2.7713024016062114e+01 6.8901780646100889e+01 2.3704296730615432e+01 0 0 0
719 1 7 -5.1666835691960056e-01 3.0156297425764254e+01 6.8982802848582480e+01 2.3821815320770842e+01 0 0 0
720 1 1 3.4514011359067381e-01 3.1206113918700716e+01 6.9030652780436384e+01 2.4110998180460701e+01 0 0 0
771 1 6 3.1315145166500435e-01 3.6248065807837690e+01 6.9381660987193243e+01 2.4781227638669495e+01 0 0 0
772 1 7 -4.9553946007622945e-01 3.4874609333789913e+01 6.9311825577275528e+01 2.4568206447558776e+01 0 0 0
773 1 1 2.6939935217511679e-01 3.4654536889299443e+01 6.8900170297939326e+01 2.3636148193851675e+01 0 0 0
775 1 7 -5.1601122493617724e-01 3.7088136315211720e+01 6.8986293106227706e+01 2.3752407368514717e+01 0 0 0
776 1 1 3.4427377257987962e-01 3.8139017186058879e+01 6.9032186464114687e+01 2.4040667713442410e+01 0 0 0
827 1 6 3.1334914139988046e-01 4.3187198578429864e+01 6.9381734519438481e+01 2.4707398830908897e+01 0 0 0
828 1 7 -4.9483628327289803e-01 4.1813746458491728e+01 6.9311950267217938e+01 2.4494319742321565e+01 0 0 0
829 1 1 2.6921661494369886e-01 4.1593714743148475e+01 6.8900127780322592e+01 2.3562314339836501e+01 0 0 0
831 1 7 -5.1623982353228304e-01 4.4027168732842867e+01 6.8986318268594133e+01 2.3678487730514743e+01 0 0 0
832 1 1 3.4418988980170701e-01 4.5078082793045674e+01 6.9032148296693833e+01 2.3966540403206462e+01 0 0 0
884 1 7 -4.9477441239569625e-01 4.8752879842412113e+01 6.9311934996278197e+01 2.4420374843467055e+01 0 0 0
885 1 1 2.6924388498230312e-01 4.8532834749701223e+01 6.8900124425056461e+01 2.3488365169010596e+01 0 0 0
883 1 6 3.1342160838101313e-01 5.0126342510887397e+01 6.9381745567138921e+01 2.4633425866597197e+01 0 0 0
887 1 7 -5.1623487374557975e-01 5.0966279830635564e+01 6.8986340340780970e+01 2.3604476424516299e+01 0 0 0
888 1 1 3.4415207997320946e-01 5.2017187040108240e+01 6.9032160123918644e+01 2.3892502342468664e+01 0 0 0
940 1 7 -4.9477738047710756e-01 5.5692032804112806e+01 6.9311918680526531e+01 2.4346341757686176e+01 0 0 0
941 1 1 2.6917288085338364e-01 5.5472023792188793e+01 6.8900113485604905e+01 2.3414317698218632e+01 0 0 0
942 1 1 3.8511037671797371e-01 5.5094883444215782e+01 6.9626195964941687e+01 2.5135406894344886e+01 0 0 0
939 1 6 3.1369360243453542e-01 5.7065490601460198e+01 6.9381754861438935e+01 2.4559421430662677e+01 0 0 0
943 1 7 -5.1572041978121907e-01 5.7905412586104703e+01 6.8986350621585473e+01 2.3530459762013830e+01 0 0 0
944 1 1 3.4411559904212174e-01 5.8956252606070251e+01 6.9032267750277413e+01 2.3818578225630262e+01 0 0 0
997 1 1 2.6702780960534578e-01 6.2409939715676401e+01 6.8899570835305880e+01 2.3338873411151454e+01 0 0 0
998 1 1 3.8482652693238756e-01 6.2033863892502431e+01 6.9626507749347098e+01 2.5061600390368280e+01 0 0 0
995 1 6 3.1155678978385298e-01 6.4001793464651868e+01 6.9381046331207727e+01 2.4485608181257842e+01 0 0 0
996 1 7 -4.9488115045345604e-01 6.2629358970483821e+01 6.9311444476733683e+01 2.4271111755392297e+01 0 0 0
999 1 7 -5.0803222464115172e-01 6.4842608746089056e+01 6.8983684657042545e+01 2.3458514129846726e+01 0 0 0
1000 1 1 3.5617835209982590e-01 6.5898013955965723e+01 6.9029091552437663e+01 2.3736203806820384e+01 0 0 0
4 1 1 3.3519040088145013e-01 3.0862996891812777e+01 5.5733339270848354e+01 3.1046219191427397e+01 0 0 0
1 1 6 2.9049816035806447e-01 3.2802796742642563e+01 5.6010144236095314e+01 3.0484724471610470e+01 0 0 0
2 1 7 -5.1471297841395802e-01 3.1432221018404523e+01 5.6095695188864653e+01 3.0260973628882553e+01 0 0 0
14 1 8 -3.8326005493643200e-01 3.5617424321690734e+01 5.5752003232020563e+01 3.1004774544614929e+01 0 0 0
57 1 6 2.8734326986486752e-01 3.9733494924287449e+01 5.6008210708650388e+01 3.0413303084050831e+01 0 0 0
58 1 7 -5.0249780978211411e-01 3.8363046912642218e+01 5.6091722649725050e+01 3.0192551117177057e+01 0 0 0
60 1 1 3.7601932371104263e-01 3.7755443972771083e+01 5.5748237865320775e+01 3.0965587083325072e+01 0 0 0
70 1 8 -3.8471833813626755e-01 4.2557763680012464e+01 5.5753271791068968e+01 3.0928185929396854e+01 0 0 0
113 1 6 2.8729901435001837e-01 4.6672730240352927e+01 5.6008180705518782e+01 3.0339250728751530e+01 0 0 0
114 1 7 -5.0148976646209298e-01 4.5302337659715164e+01 5.6091653914767541e+01 3.0118375460923975e+01 0 0 0
116 1 1 3.7620760161557432e-01 4.4694811134506146e+01 5.5748471815334646e+01 3.0891589671289623e+01 0 0 0
126 1 8 -3.8474758072442855e-01 4.9496882794819520e+01 5.5753268064110763e+01 3.0854307065150227e+01 0 0 0
169 1 6 2.8727468957741426e-01 5.3612100774919341e+01 5.6008143410866765e+01 3.0265424178841524e+01 0 0 0
170 1 7 -5.0143813262155279e-01 5.2241474302734161e+01 5.6091649585043285e+01 3.0044424908718614e+01 0 0 0
172 1 1 3.7622232082540802e-01 5.1633799074383376e+01 5.5748713714257534e+01 3.0817224838232399e+01 0 0 0
182 1 8 -3.8471395596070201e-01 5.6436394014497580e+01 5.5753148031929591e+01 3.0780555595508062e+01 0 0 0
225 1 6 2.8725736998594903e-01 6.0551207446285368e+01 5.6008154645762147e+01 3.0191265798288214e+01 0 0 0
226 1 7 -5.0240966866576620e-01 5.9180701760752541e+01 5.6091699272869413e+01 2.9970383207232402e+01 0 0 0
228 1 1 3.7623213620128376e-01 5.8573099979959743e+01 5.5748771921926533e+01 3.0743224864839991e+01 0 0 0
238 1 8 -3.8444888293319346e-01 6.3375865573955011e+01 5.5753476565103568e+01 3.0707132381798782e+01 0 0 0
281 1 6 2.8971024394155748e-01 6.7489234769114574e+01 5.6000412195264865e+01 3.0128146599730254e+01 0 0 0
282 1 7 -5.0746355736127724e-01 6.6118662142716047e+01 5.6082534903848597e+01 2.9907276860683307e+01 0 0 0
284 1 1 3.7530859962991292e-01 6.5509782199035385e+01 5.5745587844577805e+01 3.0681220102946998e+01 0 0 0
294 1 8 -3.0735337974750621e-01 7.0315242815006357e+01 5.5730309838069168e+01 3.0609880114644689e+01 0 0 0
3 1 1 3.4951507886387645e-01 3.1217153444094226e+01 5.6467258328807716e+01 2.9305555601913021e+01 0 0 0
29 1 6 2.9506820424088054e-01 3.0215328614121862e+01 5.9427412986954536e+01 2.9872349422685581e+01 0 0 0
33 1 7 -5.2017718592952211e-01 2.9372140542050925e+01 5.9038705993392284e+01 3.0901338311772260e+01 0 0 0
34 1 1 3.4741959183761817e-01 2.8320764591722650e+01 5.9069304096306439e+01 3.0631262827022205e+01 0 0 0
36 1 6 2.9445865465758114e-02 2.9676220051877500e+01 5.9886867867631565e+01 2.8636545831532647e+01 0 0 0
37 1 7 2.6485522778550108e-01 3.0562879630558520e+01 6.0203225605038611e+01 2.7461791339725970e+01 0 0 0
38 1 8 -2.2864160050146659e-01 3.0114008722244684e+01 5.9888604968450721e+01 2.6300228631455834e+01 0 0 0
40 1 7 2.7962870550351743e-01 2.8212141615561240e+01 6.0056428284299997e+01 2.8458190433414959e+01 0 0 0
41 1 8 -2.0812882458281909e-01 2.7832466267655903e+01 6.0614218968059276e+01 2.7361768584072770e+01 0 0 0
42 1 8 -3.0934672245801670e-01 2.7388307881609386e+01 5.9694409181769174e+01 2.9387853047076469e+01 0 0 0
46 1 1 3.3671961589317395e-01 2.7381015404866101e+01 5.6380710909035777e+01 2.5426101095287770e+01 0 0 0
50 1 6 1.4447127304021114e-02 2.9846950892692583e+01 5.6584807109400330e+01 2.6077863383180610e+01 0 0 0
51 1 7 2.7408881125221191e-01 2.8965453581647015e+01 5.6892983179799714e+01 2.7259395373208271e+01 0 0 0
52 1 8 -3.1926746016160190e-01 2.9426622562529008e+01 5.6580018713897658e+01 2.8415537455615592e+01 0 0 0
53 1 8 -2.7729450999603622e-01 2.7797469461422452e+01 5.7395610857217214e+01 2.7072868389228656e+01 0 0 0
340 1 1 3.2844636936366139e-01 3.0863012511754739e+01 6.2369338224481758e+01 3.1046405647884491e+01 0 0 0
5 1 7 -4.8364408327771385e-01 3.3659555782587482e+01 5.6404727404826765e+01 2.9469270164238285e+01 0 0 0
6 1 1 3.8094459825561122e-01 3.4719825444912679e+01 5.6342274245664655e+01 2.9719286810186354e+01 0 0 0
7 1 1 3.5428191768898726e-01 3.3147294886781580e+01 5.6723315900241644e+01 2.8618787419710333e+01 0 0 0
30 1 7 -5.0323498267440059e-01 3.1585698725461420e+01 5.9351039730806789e+01 3.0094779698026912e+01 0 0 0
31 1 1 3.5522495741391091e-01 3.1795308860859080e+01 5.8972886122364727e+01 3.1053581500928043e+01 0 0 0
32 1 1 3.7709231858083625e-01 3.2192594167313715e+01 5.9659752180040535e+01 2.9303708370952748e+01 0 0 0
39 1 8 -2.8102313538931595e-01 3.1707010130456759e+01 6.0744114723094832e+01 2.7678489440949967e+01 0 0 0
54 1 7 3.0755098659369334e-01 3.1309117788442482e+01 5.6746252554303510e+01 2.6267652949951010e+01 0 0 0
55 1 8 -3.3247898996993830e-01 3.1666636379100286e+01 5.7288413894287686e+01 2.7379482179627789e+01 0 0 0
56 1 8 -4.1363059303088595e-01 3.2145766251131306e+01 5.6344545941275179e+01 2.5365525233077513e+01 0 0 0
85 1 6 2.9012904390055128e-01 3.7143477283408082e+01 5.9422302226414502e+01 2.9804123331129325e+01 0 0 0
89 1 7 -4.6982938232471155e-01 3.6296814549229076e+01 5.9022102560108962e+01 3.0823710248259914e+01 0 0 0
90 1 1 3.8381295518982417e-01 3.5234592924654869e+01 5.9090063697158513e+01 3.0587385861598506e+01 0 0 0
92 1 6 3.5660285891637056e-02 3.6607614316477495e+01 5.9891131382231578e+01 2.8571314271673064e+01 0 0 0
93 1 7 2.6085294541938731e-01 3.7495305859975382e+01 6.0205709718678001e+01 2.7395483416785925e+01 0 0 0
94 1 8 -2.2258752205962720e-01 3.7048109689992636e+01 5.9889393059638707e+01 2.6233975044910242e+01 0 0 0
96 1 7 2.7941970862253623e-01 3.5143085579415548e+01 6.0059356983919635e+01 2.8394695423727821e+01 0 0 0
97 1 8 -2.0864307229530474e-01 3.4765974826869332e+01 6.0621225323589499e+01 2.7299704026032380e+01 0 0 0
98 1 8 -3.7567191665965494e-01 3.4315943281875555e+01 5.9687374044002347e+01 2.9317509668176100e+01 0 0 0
102 1 1 3.7380994447438870e-01 3.4277555315753240e+01 5.6384929953934055e+01 2.5337050977801642e+01 0 0 0
106 1 6 2.0693832510852717e-02 3.6783655899182115e+01 5.6589470783001218e+01 2.6004924681148108e+01 0 0 0
107 1 7 2.7180751544224180e-01 3.5903440626935939e+01 5.6897839419442803e+01 2.7187039987035789e+01 0 0 0
108 1 8 -3.5241235387441477e-01 3.6361652330537829e+01 5.6576726530357249e+01 2.8342710865537519e+01 0 0 0
109 1 8 -2.9925867564990100e-01 3.4730329968621405e+01 5.7387706613025117e+01 2.7002863462289891e+01 0 0 0
350 1 8 -3.9250465088988645e-01 3.5616766722804023e+01 6.2365916619242910e+01 3.0998371569684075e+01 0 0 0
59 1 1 3.5173786600508850e-01 3.8154856013367130e+01 5.6465828093183234e+01 2.9236491024370935e+01 0 0 0
61 1 7 -4.8595867787452440e-01 4.0589563142478283e+01 5.6402238421288175e+01 2.9398572584291188e+01 0 0 0
62 1 1 3.7974900282416646e-01 4.1652184899159323e+01 5.6340279792233432e+01 2.9648588488872754e+01 0 0 0
63 1 1 3.5309791021441617e-01 4.0081915288331125e+01 5.6720834153682311e+01 2.8548726987611179e+01 0 0 0
86 1 7 -4.9971067043078093e-01 3.8514301061755098e+01 5.9346103199558868e+01 3.0024719225244894e+01 0 0 0
87 1 1 3.5647457160431523e-01 3.8728633071659964e+01 5.8971033117037280e+01 3.0983439371660353e+01 0 0 0
88 1 1 3.7599796942326802e-01 3.9121726285414042e+01 5.9662118471137219e+01 2.9236275288206816e+01 0 0 0
95 1 8 -2.8366576025985207e-01 3.8640544608713284e+01 6.0744873835011738e+01 2.7609367969329007e+01 0 0 0
110 1 7 3.0557637872916354e-01 3.8247516882988407e+01 5.6747606880193850e+01 2.6193733008899201e+01 0 0 0
111 1 8 -3.3250208343028265e-01 3.8605654086344707e+01 5.7289066124837888e+01 2.7305062341764739e+01 0 0 0
112 1 8 -4.1496252395799521e-01 3.9083222062201216e+01 5.6344512672888307e+01 2.5291688934181089e+01 0 0 0
145 1 7 -4.7144643899896371e-01 4.3236417021778244e+01 5.9022060751471791e+01 3.0749597432025894e+01 0 0 0
146 1 1 3.8199009867369882e-01 4.2173954110695306e+01 5.9090024874394871e+01 3.0513239084653566e+01 0 0 0
148 1 6 3.6200180154473766e-02 4.3546912915057348e+01 5.9891312870807624e+01 2.8496875180007166e+01 0 0 0
152 1 7 2.7843648658911091e-01 4.2082485239419611e+01 6.0059327697297761e+01 2.8320588160432031e+01 0 0 0
153 1 8 -2.0780858632104893e-01 4.1705427094244506e+01 6.0621219488061030e+01 2.7225508563501698e+01 0 0 0
154 1 8 -3.7706854145555579e-01 4.1255635357318894e+01 5.9687385303800660e+01 2.9243789717253144e+01 0 0 0
158 1 1 3.7380433571059207e-01 4.1217062334833400e+01 5.6385268356704827e+01 2.5263292295237214e+01 0 0 0
163 1 7 2.7289340877293045e-01 4.2842460521776331e+01 5.6897824493201512e+01 2.7113238422837163e+01 0 0 0
164 1 8 -3.5164253968491194e-01 4.3300795892019380e+01 5.6577008431535290e+01 2.8268916658813588e+01 0 0 0
165 1 8 -2.9997413639065174e-01 4.1668987438926827e+01 5.7386996744195173e+01 2.6929349576580719e+01 0 0 0
396 1 1 3.7084022535775574e-01 3.7755583618519339e+01 6.2387197104554389e+01 3.0968358417529821e+01 0 0 0
406 1 8 -3.9303060863876760e-01 4.2556837699881342e+01 6.2366866384913102e+01 3.0922324406463471e+01 0 0 0
115 1 1 3.5194920823206449e-01 4.5094061997766254e+01 5.6466043280194654e+01 2.9162432370552636e+01 0 0 0
117 1 7 -4.8628076307943130e-01 4.7528848044903079e+01 5.6402246813129018e+01 2.9324596000790006e+01 0 0 0
118 1 1 3.7972347740503909e-01 4.8591455294116479e+01 5.6340247024972676e+01 2.9574583253688445e+01 0 0 0
119 1 1 3.5299377882457034e-01 4.7021182392371685e+01 5.6720760754666792e+01 2.8474746486077549e+01 0 0 0
141 1 6 2.9130358613804785e-01 4.4082845885415459e+01 5.9422256240077331e+01 2.9730171047804316e+01 0 0 0
142 1 7 -4.9882595460557377e-01 4.5453362934667219e+01 5.9346001888466454e+01 2.9950863799192717e+01 0 0 0
143 1 1 3.5672223139869241e-01 4.5667223017557163e+01 5.8970948501824125e+01 3.0909876733176265e+01 0 0 0
144 1 1 3.7578353789204683e-01 4.6060748189301286e+01 5.9661763218662664e+01 2.9162287596499876e+01 0 0 0
149 1 7 2.6143289481149279e-01 4.4434764148299571e+01 6.0205912509164349e+01 2.7321403602861757e+01 0 0 0
150 1 8 -2.2232137323838994e-01 4.3987506449847736e+01 5.9888922207000391e+01 2.6160095427837550e+01 0 0 0
151 1 8 -2.8406185597672051e-01 4.5579851557682026e+01 6.0745305569844767e+01 2.7535641032702731e+01 0 0 0
162 1 6 2.0917662333958014e-02 4.3722721526181822e+01 5.6589562073911061e+01 2.5931126487289404e+01 0 0 0
166 1 7 3.0538696856000458e-01 4.5186585123167383e+01 5.6747600995088312e+01 2.6119707320009823e+01 0 0 0
167 1 8 -3.3252528574003687e-01 4.5544971568869592e+01 5.7289084730841559e+01 2.7230941504792114e+01 0 0 0
168 1 8 -4.1514148435301723e-01 4.6022207552605536e+01 5.6344488851315333e+01 2.5217567634958161e+01 0 0 0
202 1 1 3.8187390862110582e-01 4.9113073551884590e+01 5.9090148435114301e+01 3.0439065855283786e+01 0 0 0
208 1 7 2.7847325379747023e-01 4.9021778197706354e+01 6.0059363103072307e+01 2.8246541340029722e+01 0 0 0
209 1 8 -2.0787663028172740e-01 4.8644591823032208e+01 6.0621271216140684e+01 2.7151454063587757e+01 0 0 0
210 1 8 -3.7745576321918251e-01 4.8194968372260220e+01 5.9687325938840871e+01 2.9169838794502944e+01 0 0 0
214 1 1 3.7376670837949971e-01 4.8156194275007692e+01 5.6385221631690747e+01 2.5189346299491572e+01 0 0 0
219 1 7 2.7298459142742543e-01 4.9781662307163813e+01 5.6897839390833134e+01 2.7039257018297736e+01 0 0 0
221 1 8 -3.0009531344512541e-01 4.8608235264524787e+01 5.7387104973528558e+01 2.6855391947619879e+01 0 0 0
452 1 1 3.7116784193497193e-01 4.4694865315609199e+01 6.2387176265751989e+01 3.0894278429427892e+01 0 0 0
462 1 8 -3.9294612584411415e-01 4.9495955792227207e+01 6.2366841814519802e+01 3.0848416788928663e+01 0 0 0
171 1 1 3.5194215503645604e-01 5.2033065983423221e+01 5.6466083549230760e+01 2.9088304870437611e+01 0 0 0
173 1 7 -4.8612179818256335e-01 5.4468310044640575e+01 5.6402258392299558e+01 2.9250536296754735e+01 0 0 0
174 1 1 3.7972237707194040e-01 5.5531029262551861e+01 5.6340326296303658e+01 2.9500615007540702e+01 0 0 0
175 1 1 3.5298875394648488e-01 5.3960776421814245e+01 5.6720833813115476e+01 2.8400493519828338e+01 0 0 0
197 1 6 2.9134605719486312e-01 5.1021950198326152e+01 5.9422240387318404e+01 2.9656246840581773e+01 0 0 0
198 1 7 -4.9883719342048150e-01 5.2392428647802298e+01 5.9346054418805771e+01 2.9876728823521045e+01 0 0 0
199 1 1 3.5670974483391638e-01 5.2606403230639444e+01 5.8970987251440391e+01 3.0835754083311311e+01 0 0 0
200 1 1 3.7577638416043824e-01 5.2999967590971259e+01 5.9661834562815017e+01 2.9088372731402934e+01 0 0 0
201 1 7 -4.7138739517580308e-01 5.0176074417993988e+01 5.9021909612308683e+01 3.0676064390556107e+01 0 0 0
204 1 6 3.6269667363119582e-02 5.0486007095013839e+01 5.9891357002170238e+01 2.8422865302308011e+01 0 0 0
205 1 7 2.6147607660370248e-01 5.1373941848922676e+01 6.0205916880168985e+01 2.7247376132602401e+01 0 0 0
206 1 8 -2.2226208510118239e-01 5.0926704355155444e+01 5.9889103098109864e+01 2.6086028953057266e+01 0 0 0
207 1 8 -2.8415744477782567e-01 5.2519174054735466e+01 6.0745019209187141e+01 2.7461505679211516e+01 0 0 0
218 1 6 2.0963463675976509e-02 5.0661914008393595e+01 5.6589575468182360e+01 2.5857139916229180e+01 0 0 0
220 1 8 -3.5166128171940642e-01 5.0239935727819251e+01 5.6576859353916980e+01 2.8194908921403467e+01 0 0 0
222 1 7 3.0540353624090549e-01 5.2125773165067130e+01 5.6747605782350632e+01 2.6045729110371646e+01 0 0 0
223 1 8 -3.3259331225424238e-01 5.2484131960786030e+01 5.7289052646423485e+01 2.7156831755115345e+01 0 0 0
224 1 8 -4.1522718968699635e-01 5.2961368178565465e+01 5.6344477840433271e+01 2.5143507566437112e+01 0 0 0
264 1 7 2.7871047993589121e-01 5.5960879225218626e+01 6.0059326472346164e+01 2.8172615755547611e+01 0 0 0
265 1 8 -2.0775659810825770e-01 5.5583682058727611e+01 6.0621184857970199e+01 2.7077517524493285e+01 0 0 0
266 1 8 -3.7741110988907972e-01 5.5134092904538328e+01 5.9687303947093383e+01 2.9095923151212983e+01 0 0 0
277 1 8 -3.0006433357224765e-01 5.5547318681477442e+01 5.7387026967218006e+01 2.6781351919158915e+01 0 0 0
508 1 1 3.7119673364206529e-01 5.1634260550697228e+01 6.2387231814866823e+01 3.0820324674588054e+01 0 0 0
227 1 1 3.5167630981126541e-01 5.8972246157446200e+01 5.6465966449082870e+01 2.9014414428071724e+01 0 0 0
229 1 7 -4.8410421679850579e-01 6.1407447297712622e+01 5.6402051833830335e+01 2.9176558729848090e+01 0 0 0
230 1 1 3.8171036992025331e-01 6.2470194355607148e+01 5.6340231832080704e+01 2.9427029502671381e+01 0 0 0
231 1 1 3.5317964366406529e-01 6.0900279817404261e+01 5.6721397847556375e+01 2.8326525656196488e+01 0 0 0
253 1 6 2.9109220023979704e-01 5.7961226554731134e+01 5.9422256876798123e+01 2.9582269156980193e+01 0 0 0
254 1 7 -5.0005584608107045e-01 5.9331719333283566e+01 5.9346126081191521e+01 2.9802576776126529e+01 0 0 0
255 1 1 3.5666101322969546e-01 5.9546061167124584e+01 5.8970955635950467e+01 3.0761720803391626e+01 0 0 0
256 1 1 3.7583308532875981e-01 5.9939505963697549e+01 5.9661478288191795e+01 2.9014437862263296e+01 0 0 0
257 1 7 -4.7126444171188220e-01 5.7115383698371708e+01 5.9021906806384308e+01 3.0602069026702779e+01 0 0 0
258 1 1 3.8190851668026982e-01 5.6052364348727451e+01 5.9090159354942415e+01 3.0365034292546049e+01 0 0 0
260 1 6 3.6263045899861138e-02 5.7425145749257368e+01 5.9891341346409803e+01 2.8348940263533411e+01 0 0 0
261 1 7 2.6123718290005365e-01 5.8313047790801804e+01 6.0206020050563744e+01 2.7173462559564211e+01 0 0 0
262 1 8 -2.2199557490492675e-01 5.7865984041062461e+01 5.9889060542760532e+01 2.6012078672262476e+01 0 0 0
263 1 8 -2.8514009334573387e-01 5.9458126923201263e+01 6.0745347645990776e+01 2.7387635113891385e+01 0 0 0
274 1 6 2.1170586863227366e-02 5.7601067734680910e+01 5.6589611154414079e+01 2.5783105822702179e+01 0 0 0
275 1 7 2.7305987004141152e-01 5.6720798846771658e+01 5.6897862825643401e+01 2.6965208471403940e+01 0 0 0
276 1 8 -3.5172116540117054e-01 5.7179131680159216e+01 5.6576952002915093e+01 2.8120862841966268e+01 0 0 0
278 1 7 3.0581982278374986e-01 5.9064945785176633e+01 5.6747481764407844e+01 2.5971743908596654e+01 0 0 0
279 1 8 -3.3327803294051761e-01 5.9423316562420183e+01 5.7288663930039426e+01 2.7083129035119139e+01 0 0 0
280 1 8 -4.1625951310725190e-01 5.9900591520476908e+01 5.6344302223344094e+01 2.5069658763160607e+01 0 0 0
322 1 8 -3.7465646639478833e-01 6.2071996962145910e+01 5.9687833703176608e+01 2.9020072836418937e+01 0 0 0
518 1 8 -3.9273427261603489e-01 5.6435335073375093e+01 6.2366790842577565e+01 3.0774425820564090e+01 0 0 0
564 1 1 3.7127264392343012e-01 5.8573098158742290e+01 6.2387960898835573e+01 3.0745440716731178e+01 0 0 0
283 1 1 3.4957698078575072e-01 6.5910106314698055e+01 5.6459250988482353e+01 2.8950589643589392e+01 0 0 0
285 1 7 -5.1394867014515933e-01 6.8335184932708614e+01 5.6394002965892341e+01 2.9103235881204203e+01 0 0 0
287 1 1 3.2933400776980110e-01 6.7810522753983875e+01 5.6691951452632345e+01 2.8258847553883736e+01 0 0 0
309 1 6 2.9391265006157363e-01 6.4890987569703711e+01 5.9420515859807942e+01 2.9510480734775939e+01 0 0 0
310 1 7 -5.1856976117545484e-01 6.6261309105764326e+01 5.9342780879789707e+01 2.9734430145300998e+01 0 0 0
311 1 1 3.5270290426667883e-01 6.6476209824694308e+01 5.8970995251675767e+01 3.0691251566027127e+01 0 0 0
312 1 1 3.3708026703361471e-01 6.6838392539976127e+01 5.9672610914876998e+01 2.8940491596272249e+01 0 0 0