ITEM: TIMESTEP
0
ITEM: NUMBER OF ATOMS
448
ITEM: BOX BOUNDS xy xz yz pp pp pp
-2.4186686450000000e-01 1.3879200000000001e+01 8.1284706647000001e-16
0.0000000000000000e+00 1.3274800000000003e+01 -2.4186686450000000e-01
0.0000000000000000e+00 2.2679910358299999e+01 1.4036330231000001e-15
ITEM: ATOMS id type xs ys zs
1 1 0.343849 0.120487 0.264086
2 2 0.244299 0.126599 0.255313
3 3 0.223367 0.155252 0.212124
4 3 0.198988 0.0964382 0.289641
5 2 0.403633 0.150057 0.218601
6 3 0.483015 0.145994 0.230146
7 3 0.366392 0.175471 0.179045
8 1 0.382043 0.0859719 0.317643
9 2 0.317737 0.0642992 0.37014
10 4 0.3504 0.0817745 0.421756
11 4 0.233001 0.028991 0.358887
12 2 0.488843 0.0720495 0.32739
13 4 0.5128 0.0316614 0.376771
14 4 0.546002 0.104117 0.28786
15 1 0.406151 0.370487 0.485914
16 2 0.505701 0.376599 0.494687
17 3 0.526633 0.405252 0.537876
18 3 0.551012 0.346438 0.460359
19 2 0.346367 0.400057 0.531399
20 3 0.266985 0.395994 0.519854
21 3 0.383608 0.425471 0.570955
22 1 0.367957 0.335972 0.432357
23 2 0.432263 0.314299 0.37986
24 4 0.3996 0.331775 0.328244
25 4 0.516999 0.278991 0.391113
26 2 0.261157 0.32205 0.42261
27 4 0.2372 0.281661 0.373229
28 4 0.203998 0.354117 0.46214
29 1 0.156151 0.379513 0.235914
30 2 0.255701 0.373401 0.244687
31 3 0.276633 0.344748 0.287876
32 3 0.301012 0.403562 0.210359
33 2 0.0963675 0.349943 0.281399
34 3 0.0169845 0.354006 0.269854
35 3 0.133608 0.324529 0.320955
36 1 0.117957 0.414028 0.182356
37 2 0.182263 0.435701 0.129859
38 4 0.149601 0.418225 0.0782441
39 4 0.266998 0.471009 0.141113
40 2 0.0111571 0.42795 0.17261
41 4 0.9872 0.468339 0.123229
42 4 0.953998 0.395883 0.21214
43 1 0.0938494 0.129513 0.0140864
44 2 0.994299 0.123401 0.00531324
45 3 0.973367 0.0947484 0.962124
46 3 0.948988 0.153562 0.0396406
47 2 0.153633 0.0999432 0.968601
48 3 0.233015 0.104006 0.980146
49 3 0.116392 0.0745287 0.929045
50 1 0.132043 0.164028 0.0676434
51 2 0.0677372 0.185701 0.12014
52 4 0.1004 0.168225 0.171756
53 4 0.983001 0.221009 0.108887
54 2 0.238843 0.17795 0.0773904
55 4 0.2628 0.218339 0.126771
56 4 0.296002 0.145883 0.0378597
57 1 0.843849 0.120487 0.264086
58 2 0.744299 0.126599 0.255313
59 3 0.723367 0.155252 0.212124
60 3 0.698988 0.0964382 0.289641
61 2 0.903633 0.150057 0.218601
62 3 0.983015 0.145994 0.230146
63 3 0.866392 0.175471 0.179045
64 1 0.882043 0.0859719 0.317643
65 2 0.817737 0.0642992 0.37014
66 4 0.8504 0.0817745 0.421756
67 4 0.733001 0.0289911 0.358887
68 2 0.988843 0.0720495 0.32739
69 4 0.0127999 0.0316614 0.376771
70 4 0.0460017 0.104117 0.28786
71 1 0.906151 0.370487 0.485914
72 2 0.00570117 0.376599 0.494687
73 3 0.0266328 0.405252 0.537876
74 3 0.0510118 0.346438 0.460359
75 2 0.846367 0.400057 0.531399
76 3 0.766985 0.395994 0.519854
77 3 0.883608 0.425471 0.570955
78 1 0.867957 0.335972 0.432357
79 2 0.932263 0.314299 0.37986
80 4 0.8996 0.331775 0.328244
81 4 0.0169986 0.278991 0.391113
82 2 0.761157 0.32205 0.42261
83 4 0.7372 0.281661 0.373229
84 4 0.703998 0.354117 0.46214
85 1 0.656151 0.379513 0.235914
86 2 0.755701 0.373401 0.244687
87 3 0.776633 0.344748 0.287876
88 3 0.801012 0.403562 0.210359
89 2 0.596367 0.349943 0.281399
90 3 0.516985 0.354006 0.269854
91 3 0.633608 0.324529 0.320955
92 1 0.617957 0.414028 0.182357
93 2 0.682263 0.435701 0.12986
94 4 0.6496 0.418226 0.078244
95 4 0.766999 0.471009 0.141113
96 2 0.511157 0.427951 0.17261
97 4 0.4872 0.468339 0.123228
98 4 0.453998 0.395883 0.212141
99 1 0.593849 0.129513 0.0140865
100 2 0.494299 0.123401 0.00531324
101 3 0.473367 0.0947484 0.962124
102 3 0.448988 0.153562 0.0396406
103 2 0.653633 0.0999432 0.968601
104 3 0.733015 0.104006 0.980146
105 3 0.616392 0.0745287 0.929045
106 1 0.632043 0.164028 0.0676435
107 2 0.567737 0.185701 0.12014
108 4 0.6004 0.168225 0.171756
109 4 0.483001 0.221009 0.108887
110 2 0.738843 0.17795 0.0773904
111 4 0.7628 0.218339 0.126771
112 4 0.796002 0.145883 0.0378597
113 1 0.343849 0.620487 0.264086
114 2 0.244299 0.626599 0.255313
115 3 0.223367 0.655252 0.212124
116 3 0.198988 0.596438 0.289641
117 2 0.403633 0.650057 0.218601
118 3 0.483015 0.645994 0.230146
119 3 0.366392 0.675471 0.179045
120 1 0.382043 0.585972 0.317643
121 2 0.317737 0.564299 0.37014
122 4 0.3504 0.581775 0.421756
123 4 0.233001 0.528991 0.358887
124 2 0.488843 0.57205 0.32739
125 4 0.5128 0.531661 0.376771
126 4 0.546002 0.604117 0.28786
127 1 0.406151 0.870487 0.485914
128 2 0.505701 0.876599 0.494687
129 3 0.526633 0.905252 0.537876
130 3 0.551012 0.846438 0.460359
131 2 0.346367 0.900057 0.531399
132 3 0.266985 0.895994 0.519854
133 3 0.383608 0.925471 0.570955
134 1 0.367957 0.835972 0.432357
135 2 0.432263 0.814299 0.37986
136 4 0.3996 0.831775 0.328244
137 4 0.516999 0.778991 0.391113
138 2 0.261157 0.82205 0.42261
139 4 0.2372 0.781661 0.373229
140 4 0.203998 0.854117 0.46214
141 1 0.156151 0.879513 0.235914
142 2 0.255701 0.873401 0.244687
143 3 0.276633 0.844748 0.287876
144 3 0.301012 0.903562 0.210359
145 2 0.0963675 0.849943 0.281399
146 3 0.0169845 0.854006 0.269854
147 3 0.133608 0.824529 0.320955
148 1 0.117957 0.914028 0.182356
149 2 0.182263 0.935701 0.129859
150 4 0.149601 0.918225 0.0782441
151 4 0.266998 0.971009 0.141113
152 2 0.0111571 0.92795 0.17261
153 4 0.9872 0.968339 0.123229
154 4 0.953998 0.895883 0.21214
155 1 0.0938494 0.629513 0.0140864
156 2 0.994299 0.623401 0.00531324
157 3 0.973367 0.594748 0.962124
158 3 0.948988 0.653562 0.0396406
159 2 0.153633 0.599943 0.968601
160 3 0.233015 0.604006 0.980146
161 3 0.116392 0.574529 0.929045
162 1 0.132043 0.664028 0.0676434
163 2 0.0677372 0.685701 0.12014
164 4 0.1004 0.668225 0.171756
165 4 0.983001 0.721009 0.108887
166 2 0.238843 0.67795 0.0773904
167 4 0.2628 0.718339 0.126771
168 4 0.296002 0.645883 0.0378596
169 1 0.843849 0.620487 0.264086
170 2 0.744299 0.626599 0.255313
171 3 0.723367 0.655252 0.212124
172 3 0.698988 0.596438 0.289641
173 2 0.903633 0.650057 0.218601
174 3 0.983015 0.645994 0.230146
175 3 0.866392 0.675471 0.179045
176 1 0.882043 0.585972 0.317643
177 2 0.817737 0.564299 0.37014
178 4 0.8504 0.581774 0.421756
179 4 0.733001 0.528991 0.358887
180 2 0.988843 0.57205 0.32739
181 4 0.0127999 0.531661 0.376771
182 4 0.0460017 0.604117 0.28786
183 1 0.906151 0.870487 0.485914
184 2 0.00570117 0.876599 0.494687
185 3 0.0266328 0.905252 0.537876
186 3 0.0510118 0.846438 0.460359
187 2 0.846367 0.900057 0.531399
188 3 0.766985 0.895994 0.519854
189 3 0.883608 0.925471 0.570955
190 1 0.867957 0.835972 0.432357
191 2 0.932263 0.814299 0.37986
192 4 0.8996 0.831774 0.328244
193 4 0.0169986 0.778991 0.391113
194 2 0.761157 0.82205 0.42261
195 4 0.7372 0.781661 0.373229
196 4 0.703998 0.854117 0.46214
197 1 0.656151 0.879513 0.235914
198 2 0.755701 0.873401 0.244687
199 3 0.776633 0.844748 0.287876
200 3 0.801012 0.903562 0.210359
201 2 0.596367 0.849943 0.281399
202 3 0.516985 0.854006 0.269854
203 3 0.633608 0.824529 0.320955
204 1 0.617957 0.914028 0.182357
205 2 0.682263 0.935701 0.12986
206 4 0.6496 0.918226 0.078244
207 4 0.766999 0.971009 0.141113
208 2 0.511157 0.927951 0.17261
209 4 0.4872 0.968339 0.123228
210 4 0.453998 0.895883 0.212141
211 1 0.593849 0.629513 0.0140865
212 2 0.494299 0.623401 0.00531324
213 3 0.473367 0.594748 0.962124
214 3 0.448988 0.653562 0.0396406
215 2 0.653633 0.599943 0.968601
216 3 0.733015 0.604006 0.980146
217 3 0.616392 0.574529 0.929045
218 1 0.632043 0.664028 0.0676435
219 2 0.567737 0.685701 0.12014
220 4 0.6004 0.668226 0.171756
221 4 0.483001 0.721009 0.108887
222 2 0.738843 0.67795 0.0773904
223 4 0.7628 0.718339 0.126771
224 4 0.796002 0.645883 0.0378597
225 1 0.343849 0.120487 0.764086
226 2 0.244299 0.126599 0.755313
227 3 0.223367 0.155252 0.712124
228 3 0.198988 0.0964382 0.789641
229 2 0.403633 0.150057 0.718601
230 3 0.483015 0.145994 0.730146
231 3 0.366392 0.175471 0.679045
232 1 0.382043 0.0859718 0.817643
233 2 0.317737 0.0642992 0.87014
234 4 0.3504 0.0817745 0.921756
235 4 0.233001 0.0289912 0.858887
236 2 0.488843 0.0720495 0.82739
237 4 0.5128 0.0316614 0.876771
238 4 0.546002 0.104117 0.78786
239 1 0.406173 0.370514 0.985959
240 2 0.505706 0.376597 0.994693
241 3 0.52663 0.405252 0.0378767
242 3 0.551004 0.346444 0.960362
243 2 0.346364 0.400063 0.0314072
244 3 0.267 0.395995 0.0198568
245 3 0.383609 0.425472 0.0709548
246 1 0.368023 0.335986 0.932383
247 2 0.432302 0.314284 0.879861
248 4 0.399561 0.331798 0.828174
249 4 0.517082 0.278953 0.891116
250 2 0.261133 0.322055 0.922624
251 4 0.237157 0.281575 0.873137
252 4 0.203893 0.35417 0.962208
253 1 0.156151 0.379513 0.735913
254 2 0.255702 0.373401 0.744687
255 3 0.276635 0.344749 0.787876
256 3 0.301012 0.403562 0.710359
257 2 0.0963661 0.349943 0.781399
258 3 0.0169833 0.354006 0.769854
259 3 0.133599 0.324531 0.820951
260 1 0.117957 0.414028 0.682357
261 2 0.182263 0.435701 0.629859
262 4 0.1496 0.418226 0.578244
263 4 0.266998 0.471009 0.641112
264 2 0.0111567 0.427951 0.672609
265 4 0.9872 0.468339 0.623229
266 4 0.953998 0.395883 0.71214
267 1 0.0938494 0.129513 0.514086
268 2 0.994299 0.123401 0.505313
269 3 0.973367 0.0947484 0.462124
270 3 0.948988 0.153562 0.539641
271 2 0.153633 0.0999432 0.468601
272 3 0.233015 0.104006 0.480146
273 3 0.116392 0.0745287 0.429045
274 1 0.132043 0.164028 0.567643
275 2 0.0677372 0.185701 0.62014
276 4 0.1004 0.168225 0.671756
277 4 0.983001 0.221009 0.608887
278 2 0.238843 0.17795 0.57739
279 4 0.2628 0.218339 0.626771
280 4 0.296002 0.145883 0.53786
281 1 0.843849 0.120487 0.764086
282 2 0.744299 0.126599 0.755313
283 3 0.723367 0.155252 0.712124
284 3 0.698988 0.0964382 0.789641
285 2 0.903633 0.150057 0.718601
286 3 0.983015 0.145994 0.730146
287 3 0.866392 0.175471 0.679045
288 1 0.882043 0.0859719 0.817643
289 2 0.817737 0.0642992 0.87014
290 4 0.8504 0.0817745 0.921756
291 4 0.733001 0.0289911 0.858887
292 2 0.988843 0.0720495 0.82739
293 4 0.0127999 0.0316614 0.876771
294 4 0.0460017 0.104117 0.78786
295 1 0.906151 0.370487 0.985914
296 2 0.00570125 0.376599 0.994687
297 3 0.0266328 0.405252 0.037876
298 3 0.0510115 0.346438 0.960359
299 2 0.846367 0.400057 0.0313991
300 3 0.766985 0.395994 0.0198538
301 3 0.883608 0.425471 0.0709546
302 1 0.867957 0.335972 0.932357
303 2 0.932263 0.314299 0.87986
304 4 0.8996 0.331774 0.828244
305 4 0.0169983 0.278991 0.891113
306 2 0.761157 0.32205 0.92261
307 4 0.7372 0.281661 0.873229
308 4 0.703998 0.354117 0.96214
309 1 0.656151 0.379513 0.735913
310 2 0.755701 0.373401 0.744687
311 3 0.776633 0.344748 0.787876
312 3 0.801012 0.403562 0.710359
313 2 0.596368 0.349943 0.781399
314 3 0.516985 0.354006 0.769853
315 3 0.633608 0.324529 0.820955
316 1 0.617957 0.414028 0.682357
317 2 0.682263 0.435701 0.62986
318 4 0.6496 0.418226 0.578244
319 4 0.766999 0.471009 0.641113
320 2 0.511157 0.427951 0.67261
321 4 0.4872 0.468339 0.623229
322 4 0.453998 0.395883 0.71214
323 1 0.593849 0.129513 0.514086
324 2 0.494299 0.123401 0.505313
325 3 0.473367 0.0947484 0.462124
326 3 0.448988 0.153562 0.539641
327 2 0.653633 0.0999432 0.468601
328 3 0.733015 0.104006 0.480146
329 3 0.616392 0.0745287 0.429045
330 1 0.632043 0.164028 0.567643
331 2 0.567737 0.185701 0.62014
332 4 0.6004 0.168225 0.671756
333 4 0.483001 0.221009 0.608887
334 2 0.738843 0.17795 0.57739
335 4 0.7628 0.218339 0.626771
336 4 0.796002 0.145883 0.53786
337 1 0.343849 0.620487 0.764086
338 2 0.244299 0.626599 0.755313
339 3 0.223367 0.655252 0.712124
340 3 0.198988 0.596438 0.789641
341 2 0.403633 0.650057 0.718601
342 3 0.483015 0.645994 0.730146
343 3 0.366392 0.675471 0.679045
344 1 0.382043 0.585972 0.817643
345 2 0.317737 0.564299 0.87014
346 4 0.3504 0.581775 0.921756
347 4 0.233001 0.528991 0.858887
348 2 0.488843 0.57205 0.82739
349 4 0.5128 0.531661 0.876771
350 4 0.546002 0.604117 0.78786
351 1 0.406173 0.870514 0.985959
352 2 0.505706 0.876597 0.994693
353 3 0.52663 0.905252 0.0378767
354 3 0.551004 0.846444 0.960362
355 2 0.346364 0.900063 0.0314072
356 3 0.267 0.895995 0.0198568
357 3 0.383609 0.925472 0.0709548
358 1 0.368023 0.835986 0.932383
359 2 0.432302 0.814284 0.879861
360 4 0.399561 0.831798 0.828173
361 4 0.517082 0.778953 0.891116
362 2 0.261133 0.822055 0.922624
363 4 0.237157 0.781575 0.873137
364 4 0.203893 0.85417 0.962208
365 1 0.156151 0.879513 0.735913
366 2 0.255702 0.873401 0.744687
367 3 0.276635 0.844749 0.787876
368 3 0.301012 0.903562 0.710359
369 2 0.0963661 0.849943 0.781399
370 3 0.0169833 0.854006 0.769854
371 3 0.133599 0.824531 0.820951
372 1 0.117957 0.914028 0.682357
373 2 0.182263 0.935701 0.629859
374 4 0.1496 0.918226 0.578244
375 4 0.266998 0.971009 0.641112
376 2 0.0111567 0.927951 0.672609
377 4 0.9872 0.968339 0.623229
378 4 0.953998 0.895883 0.71214
379 1 0.0938494 0.629513 0.514086
380 2 0.994299 0.623401 0.505313
381 3 0.973367 0.594748 0.462124
382 3 0.948988 0.653562 0.539641
383 2 0.153633 0.599943 0.468601
384 3 0.233015 0.604006 0.480146
385 3 0.116392 0.574529 0.429045
386 1 0.132043 0.664028 0.567643
387 2 0.0677372 0.685701 0.62014
388 4 0.1004 0.668225 0.671756
389 4 0.983001 0.721009 0.608887
390 2 0.238843 0.67795 0.57739
391 4 0.2628 0.718339 0.626771
392 4 0.296002 0.645883 0.53786
393 1 0.843849 0.620487 0.764086
394 2 0.744299 0.626599 0.755313
395 3 0.723367 0.655252 0.712124
396 3 0.698988 0.596438 0.789641
397 2 0.903633 0.650057 0.718601
398 3 0.983015 0.645994 0.730146
399 3 0.866392 0.675471 0.679045
400 1 0.882043 0.585972 0.817643
401 2 0.817737 0.564299 0.87014
402 4 0.8504 0.581774 0.921756
403 4 0.733001 0.528991 0.858887
404 2 0.988843 0.57205 0.82739
405 4 0.0127999 0.531661 0.876771
406 4 0.0460017 0.604117 0.78786
407 1 0.906151 0.870487 0.985914
408 2 0.00570125 0.876599 0.994687
409 3 0.0266328 0.905252 0.037876
410 3 0.0510115 0.846438 0.960359
411 2 0.846367 0.900057 0.0313991
412 3 0.766985 0.895994 0.0198538
413 3 0.883608 0.925471 0.0709546
414 1 0.867957 0.835972 0.932357
415 2 0.932263 0.814299 0.87986
416 4 0.8996 0.831774 0.828244
417 4 0.0169983 0.778991 0.891113
418 2 0.761157 0.82205 0.92261
419 4 0.7372 0.781661 0.873229
420 4 0.703998 0.854117 0.96214
421 1 0.656151 0.879513 0.735913
422 2 0.755701 0.873401 0.744687
423 3 0.776633 0.844748 0.787876
424 3 0.801012 0.903562 0.710359
425 2 0.596368 0.849943 0.781399
426 3 0.516985 0.854006 0.769853
427 3 0.633608 0.824529 0.820955
428 1 0.617957 0.914028 0.682357
429 2 0.682263 0.935701 0.62986
430 4 0.6496 0.918226 0.578244
431 4 0.766999 0.971009 0.641113
432 2 0.511157 0.927951 0.67261
433 4 0.4872 0.968339 0.623229
434 4 0.453998 0.895883 0.71214
435 1 0.593849 0.629513 0.514086
436 2 0.494299 0.623401 0.505313
437 3 0.473367 0.594748 0.462124
438 3 0.448988 0.653562 0.539641
439 2 0.653633 0.599943 0.468601
440 3 0.733015 0.604006 0.480146
441 3 0.616392 0.574529 0.429045
442 1 0.632043 0.664028 0.567643
443 2 0.567737 0.685701 0.62014
444 4 0.6004 0.668225 0.671756
445 4 0.483001 0.721009 0.608887
446 2 0.738843 0.67795 0.57739
447 4 0.7628 0.718339 0.626771
448 4 0.796002 0.645883 0.53786
ITEM: TIMESTEP
1000
ITEM: NUMBER OF ATOMS
448
ITEM: BOX BOUNDS xy xz yz pp pp pp
-2.3923171753628503e-01 1.3904229160467787e+01 1.1832057770008425e-01
-2.2476166340011433e-01 1.3480281849996320e+01 -3.3252313476860906e-01
1.1115725420410172e-01 2.2568753104095933e+01 -1.9279813403853607e-02
ITEM: ATOMS id type xs ys zs
1 1 0.344604 0.155087 0.255311
2 2 0.247382 0.159287 0.242576
3 3 0.241248 0.197782 0.199683
4 3 0.206412 0.109485 0.279833
5 2 0.411481 0.192615 0.211253
6 3 0.484556 0.176326 0.235198
7 3 0.385111 0.170794 0.16775
8 1 0.385319 0.119799 0.308684
9 2 0.321599 0.0936126 0.359014
10 4 0.362692 0.0854999 0.41065
11 4 0.228977 0.0861118 0.348051
12 2 0.492259 0.0855478 0.31975
13 4 0.508495 0.0264589 0.362032
14 4 0.555274 0.119941 0.284869
15 1 0.402928 0.370148 0.501744
16 2 0.495711 0.335504 0.522164
17 3 0.505476 0.361224 0.571425
18 3 0.552285 0.327743 0.48971
19 2 0.343522 0.421288 0.538642
20 3 0.26506 0.45242 0.513074
21 3 0.371965 0.411433 0.583931
22 1 0.372214 0.358505 0.441201
23 2 0.447376 0.324678 0.394281
24 4 0.419584 0.315198 0.340328
25 4 0.528591 0.293156 0.416521
26 2 0.271464 0.37388 0.423279
27 4 0.240982 0.343674 0.370547
28 4 0.211535 0.424083 0.456227
29 1 0.161121 0.411918 0.253835
30 2 0.263108 0.427079 0.261095
31 3 0.294331 0.366931 0.289264
32 3 0.290693 0.449433 0.213586
33 2 0.104623 0.391701 0.30284
34 3 0.0253585 0.393587 0.286333
35 3 0.142403 0.387619 0.356103
36 1 0.116404 0.418307 0.1956
37 2 0.179484 0.413557 0.142113
38 4 0.133083 0.399032 0.0933734
39 4 0.272046 0.427314 0.145427
40 2 0.00910277 0.429675 0.187995
41 4 0.980122 0.455676 0.135802
42 4 0.950574 0.416352 0.232434
43 1 0.104094 0.102809 0.00470055
44 2 1.8677e-05 0.100599 0.991808
45 3 0.994688 0.0277234 0.970696
46 3 0.96224 0.124378 0.0345314
47 2 0.165684 0.0907076 0.955964
48 3 0.237285 0.115569 0.972512
49 3 0.112693 0.103806 0.908792
50 1 0.144425 0.126614 0.0611607
51 2 0.0758864 0.147377 0.111406
52 4 0.117747 0.157672 0.162633
53 4 0.984414 0.159448 0.102456
54 2 0.251747 0.138663 0.0716206
55 4 0.27588 0.163329 0.12522
56 4 0.311315 0.114352 0.0300461
57 1 0.844769 0.109079 0.249186
58 2 0.740837 0.10255 0.238251
59 3 0.725801 0.127653 0.191778
60 3 0.705898 0.0988294 0.280559
61 2 0.903798 0.119031 0.199405
62 3 0.988074 0.111228 0.21805
63 3 0.863131 0.118344 0.155958
64 1 0.8838 0.105801 0.307641
65 2 0.822222 0.115511 0.360169
66 4 0.858169 0.116237 0.412706
67 4 0.726842 0.121734 0.351518
68 2 0.993251 0.0858935 0.319882
69 4 0.0177662 0.0776635 0.374065
70 4 0.0491232 0.081971 0.273962
71 1 0.900333 0.38254 0.495997
72 2 0.991025 0.42795 0.496653
73 3 0.0140653 0.447751 0.543626
74 3 0.0130504 0.432177 0.451911
75 2 0.836594 0.369081 0.542762
76 3 0.763679 0.336367 0.527318
77 3 0.872122 0.382194 0.588671
78 1 0.861615 0.354839 0.439016
79 2 0.934764 0.325073 0.391923
80 4 0.901857 0.337127 0.338387
81 4 0.0187832 0.290265 0.407945
82 2 0.754608 0.35667 0.426235
83 4 0.737143 0.359442 0.370301
84 4 0.692631 0.3499 0.469068
85 1 0.669747 0.362033 0.236162
86 2 0.771193 0.37432 0.246149
87 3 0.778693 0.362454 0.293891
88 3 0.807581 0.426259 0.207824
89 2 0.610093 0.319311 0.282666
90 3 0.53405 0.319522 0.268814
91 3 0.63584 0.359361 0.321851
92 1 0.625565 0.394889 0.182811
93 2 0.689545 0.405717 0.130802
94 4 0.648362 0.396561 0.0804816
95 4 0.783452 0.423131 0.139723
96 2 0.514856 0.411171 0.179966
97 4 0.490544 0.464276 0.136396
98 4 0.45892 0.375372 0.22015
99 1 0.599936 0.116953 0.00872079
100 2 0.500079 0.126811 0.992981
101 3 0.49567 0.0966372 0.947185
102 3 0.464244 0.179108 0.0309073
103 2 0.666499 0.0736357 0.968388
104 3 0.733626 0.0877136 0.993985
105 3 0.63383 0.0738897 0.923434
106 1 0.636522 0.153811 0.0625574
107 2 0.573401 0.172802 0.11355
108 4 0.60615 0.169368 0.166902
109 4 0.48205 0.194385 0.0998882
110 2 0.746168 0.176722 0.0751114
111 4 0.763043 0.232714 0.120122
112 4 0.808117 0.159299 0.0356204
113 1 0.352469 0.618916 0.245824
114 2 0.257694 0.660443 0.236215
115 3 0.239246 0.644889 0.187451
116 3 0.219906 0.646775 0.277011
117 2 0.411291 0.609959 0.197558
118 3 0.484217 0.557562 0.214313
119 3 0.378418 0.658019 0.164215
120 1 0.385906 0.585496 0.302554
121 2 0.320164 0.587361 0.356305
122 4 0.35124 0.554835 0.40621
123 4 0.231834 0.617531 0.349321
124 2 0.491466 0.570352 0.312243
125 4 0.517823 0.564418 0.36708
126 4 0.553336 0.561734 0.269376
127 1 0.377653 0.89487 0.496923
128 2 0.466263 0.855388 0.518465
129 3 0.483383 0.879022 0.562754
130 3 0.497258 0.799263 0.483815
131 2 0.322332 0.951233 0.535276
132 3 0.245543 0.964365 0.51442
133 3 0.352213 0.953087 0.583049
134 1 0.346782 0.863165 0.439676
135 2 0.412853 0.823294 0.394225
136 4 0.385829 0.823249 0.338445
137 4 0.500121 0.799114 0.410516
138 2 0.237827 0.871358 0.424766
139 4 0.21416 0.836653 0.374372
140 4 0.180433 0.914663 0.461646
141 1 0.131813 0.883979 0.23774
142 2 0.227519 0.914534 0.253059
143 3 0.213837 0.934285 0.300781
144 3 0.249367 0.974021 0.215475
145 2 0.0655933 0.845509 0.281848
146 3 0.00987106 0.799499 0.253453
147 3 0.112182 0.839498 0.3211
148 1 0.101602 0.90004 0.180188
149 2 0.162986 0.932188 0.128134
150 4 0.132982 0.921257 0.0747941
151 4 0.242552 0.974841 0.143755
152 2 0.991078 0.894746 0.166584
153 4 0.959082 0.944836 0.122481
154 4 0.936419 0.844383 0.200659
155 1 0.104444 0.598575 0.00629263
156 2 0.00702259 0.598203 0.994289
157 3 0.989829 0.572131 0.947724
158 3 0.974136 0.641213 0.0344986
159 2 0.172261 0.575777 0.958059
160 3 0.24585 0.562137 0.982021
161 3 0.126932 0.535534 0.9295
162 1 0.140295 0.636658 0.0600092
163 2 0.0778803 0.654888 0.112919
164 4 0.114154 0.657209 0.165948
165 4 0.984498 0.665435 0.104787
166 2 0.244552 0.670855 0.062227
167 4 0.269349 0.727833 0.105919
168 4 0.303942 0.645487 0.0217736
169 1 0.850592 0.626239 0.258434
170 2 0.755001 0.610225 0.245883
171 3 0.735278 0.637354 0.202197
172 3 0.708541 0.582796 0.287745
173 2 0.914134 0.657256 0.213993
174 3 0.992764 0.654366 0.233406
175 3 0.875606 0.679721 0.174616
176 1 0.89006 0.605953 0.316494
177 2 0.821497 0.604443 0.367023
178 4 0.864122 0.621329 0.416845
179 4 0.728977 0.583849 0.358305
180 2 0.996306 0.582793 0.327066
181 4 0.0202305 0.533472 0.37388
182 4 0.0577526 0.600402 0.286371
183 1 0.904641 0.899287 0.493502
184 2 0.0078621 0.894488 0.499239
185 3 0.0376893 0.908922 0.544265
186 3 0.0321373 0.848739 0.453599
187 2 0.849398 0.934277 0.541259
188 3 0.76258 0.924433 0.538894
189 3 0.890545 0.921586 0.581539
190 1 0.857734 0.870634 0.440547
191 2 0.917073 0.84905 0.385318
192 4 0.86894 0.852241 0.337509
193 4 0.00993726 0.826082 0.387336
194 2 0.748079 0.870986 0.437585
195 4 0.708382 0.83884 0.389646
196 4 0.696992 0.896796 0.482849
197 1 0.639273 0.86788 0.24542
198 2 0.744104 0.863019 0.256894
199 3 0.749308 0.881949 0.303693
200 3 0.777236 0.897797 0.219272
201 2 0.574551 0.834128 0.285626
202 3 0.488811 0.857436 0.263724
203 3 0.615869 0.812321 0.324313
204 1 0.61764 0.904437 0.188408
205 2 0.702652 0.92659 0.14312
206 4 0.707333 0.866245 0.100265
207 4 0.751096 0.00375855 0.147009
208 2 0.519102 0.906618 0.166977
209 4 0.500067 0.92721 0.109708
210 4 0.447777 0.879949 0.201619
211 1 0.598695 0.610951 0.00567659
212 2 0.501238 0.609561 0.992646
213 3 0.484804 0.571866 0.950803
214 3 0.469082 0.643848 0.0407097
215 2 0.66717 0.578344 0.959763
216 3 0.741317 0.602189 0.973746
217 3 0.630888 0.594681 0.916317
218 1 0.639317 0.641947 0.0597181
219 2 0.574817 0.665853 0.110713
220 4 0.617852 0.679637 0.159076
221 4 0.477873 0.671398 0.106834
222 2 0.749404 0.654293 0.0718843
223 4 0.774031 0.68908 0.123623
224 4 0.809785 0.634833 0.0311855
225 1 0.346536 0.12567 0.750931
226 2 0.24343 0.127715 0.738864
227 3 0.239567 0.159139 0.694451
228 3 0.210484 0.151457 0.784851
229 2 0.406893 0.117421 0.701745
230 3 0.481269 0.0827925 0.717361
231 3 0.353196 0.123707 0.664068
232 1 0.388956 0.109026 0.80733
233 2 0.318448 0.0821619 0.856103
234 4 0.35971 0.0525635 0.903604
235 4 0.226452 0.103768 0.848855
236 2 0.497842 0.102006 0.817634
237 4 0.524959 0.109523 0.871352
238 4 0.554032 0.102932 0.77196
239 1 0.411232 0.344738 0.00446623
240 2 0.504147 0.389045 0.0124636
241 3 0.52497 0.375133 0.0591874
242 3 0.541174 0.366827 0.973164
243 2 0.35808 0.322382 0.0549419
244 3 0.2871 0.272137 0.0388996
245 3 0.389072 0.360156 0.0925019
246 1 0.37386 0.328878 0.94652
247 2 0.438722 0.327278 0.892385
248 4 0.39416 0.334748 0.843224
249 4 0.53418 0.315779 0.900909
250 2 0.264891 0.319067 0.93942
251 4 0.230465 0.344492 0.889852
252 4 0.216239 0.28903 0.985383
253 1 0.143312 0.384122 0.744887
254 2 0.242509 0.401745 0.762166
255 3 0.25059 0.373404 0.806411
256 3 0.290819 0.400489 0.722394
257 2 0.0855034 0.346161 0.789363
258 3 0.00157377 0.33979 0.775105
259 3 0.129592 0.338556 0.828807
260 1 0.114095 0.399117 0.685546
261 2 0.184711 0.435993 0.638739
262 4 0.146945 0.467561 0.590218
263 4 0.274081 0.444702 0.654263
264 2 0.0101393 0.379148 0.669737
265 4 0.984703 0.397534 0.615631
266 4 0.950957 0.350861 0.709926
267 1 0.0933531 0.135666 0.500087
268 2 0.990397 0.124679 0.492837
269 3 0.974529 0.153131 0.447019
270 3 0.955053 0.145176 0.533482
271 2 0.152194 0.115507 0.449058
272 3 0.232494 0.105097 0.469612
273 3 0.114325 0.0578195 0.423557
274 1 0.13023 0.152905 0.557148
275 2 0.0689206 0.154456 0.614471
276 4 0.114741 0.155165 0.663499
277 4 0.974481 0.155692 0.607129
278 2 0.233622 0.179861 0.563933
279 4 0.260595 0.229309 0.609987
280 4 0.292866 0.161109 0.520131
281 1 0.840251 0.123392 0.758159
282 2 0.74018 0.109898 0.743182
283 3 0.72548 0.13644 0.698341
284 3 0.704148 0.10221 0.787878
285 2 0.897572 0.167296 0.715963
286 3 0.986743 0.161766 0.737817
287 3 0.868052 0.158864 0.671554
288 1 0.881587 0.103836 0.817215
289 2 0.81184 0.0644964 0.865416
290 4 0.850095 0.0404416 0.914084
291 4 0.72025 0.0460572 0.852616
292 2 0.979841 0.116735 0.832809
293 4 0.00617172 0.0987755 0.889455
294 4 0.0420352 0.147316 0.793848
295 1 0.896629 0.388581 0.99833
296 2 0.994185 0.36491 0.00768886
297 3 0.0219214 0.377042 0.0533083
298 3 0.0225539 0.32573 0.964245
299 2 0.83615 0.439306 0.0362784
300 3 0.750218 0.444142 0.0171603
301 3 0.870125 0.445416 0.0793405
302 1 0.853168 0.352178 0.944919
303 2 0.910168 0.333134 0.8889
304 4 0.868815 0.332274 0.836766
305 4 0.0039821 0.326852 0.893869
306 2 0.746652 0.331306 0.938843
307 4 0.722021 0.26737 0.901723
308 4 0.686552 0.378352 0.974199
309 1 0.631188 0.337866 0.753178
310 2 0.721983 0.366812 0.773381
311 3 0.737784 0.339478 0.818494
312 3 0.755944 0.400579 0.726862
313 2 0.566985 0.283524 0.788423
314 3 0.495001 0.286917 0.759566
315 3 0.582713 0.317943 0.835052
316 1 0.596897 0.372592 0.696303
317 2 0.665208 0.385339 0.643738
318 4 0.622826 0.382389 0.593026
319 4 0.75635 0.397732 0.656487
320 2 0.494483 0.404647 0.689068
321 4 0.478211 0.471586 0.650075
322 4 0.430291 0.364893 0.723732
323 1 0.587393 0.146124 0.499168
324 2 0.485133 0.142687 0.487062
325 3 0.475245 0.110086 0.444204
326 3 0.445053 0.140668 0.532083
327 2 0.645833 0.140078 0.450892
328 3 0.729103 0.15141 0.464921
329 3 0.598631 0.140615 0.408297
330 1 0.627392 0.1546 0.557846
331 2 0.561321 0.146369 0.610142
332 4 0.603885 0.147285 0.660637
333 4 0.466915 0.139515 0.602085
334 2 0.73463 0.16309 0.56997
335 4 0.767391 0.154776 0.622198
336 4 0.793603 0.167484 0.524373
337 1 0.345 0.627083 0.756684
338 2 0.245434 0.628534 0.744929
339 3 0.227664 0.640852 0.696905
340 3 0.204298 0.610505 0.790009
341 2 0.408871 0.644978 0.708999
342 3 0.489646 0.6593 0.719444
343 3 0.369277 0.628443 0.668653
344 1 0.384657 0.609364 0.814667
345 2 0.320666 0.575407 0.863203
346 4 0.356043 0.556739 0.914522
347 4 0.228254 0.558023 0.851921
348 2 0.491761 0.623678 0.823144
349 4 0.52117 0.60984 0.876503
350 4 0.551078 0.644159 0.779642
351 1 0.403345 0.870422 0.00333608
352 2 0.504875 0.847411 0.0142048
353 3 0.496979 0.797359 0.0531897
354 3 0.530187 0.821934 0.972932
355 2 0.341976 0.903567 0.0458913
356 3 0.266359 0.914864 0.025125
357 3 0.394074 0.91373 0.0948255
358 1 0.370212 0.851476 0.9435
359 2 0.436357 0.837172 0.891475
360 4 0.394728 0.84183 0.839341
361 4 0.527541 0.817977 0.898556
362 2 0.264571 0.83145 0.933851
363 4 0.244586 0.788852 0.885189
364 4 0.201689 0.862146 0.973148
365 1 0.165525 0.908968 0.748091
366 2 0.266575 0.917139 0.762937
367 3 0.279425 0.871532 0.803228
368 3 0.30481 0.904845 0.721246
369 2 0.0999108 0.902057 0.79386
370 3 0.0161694 0.898696 0.776113
371 3 0.134954 0.885793 0.834363
372 1 0.128949 0.915471 0.689484
373 2 0.199274 0.932234 0.637385
374 4 0.157612 0.943664 0.587956
375 4 0.293805 0.93426 0.646234
376 2 0.0247151 0.907708 0.67496
377 4 0.000841702 0.912305 0.618291
378 4 0.959299 0.891625 0.714705
379 1 0.0941829 0.672127 0.496322
380 2 0.991408 0.684945 0.483836
381 3 0.983016 0.643527 0.442095
382 3 0.949063 0.66638 0.528572
383 2 0.149386 0.650303 0.447442
384 3 0.233691 0.625686 0.457713
385 3 0.101772 0.655415 0.408874
386 1 0.136642 0.667655 0.554101
387 2 0.0745062 0.663134 0.609408
388 4 0.112413 0.655505 0.661686
389 4 0.982924 0.660274 0.598352
390 2 0.2448 0.672544 0.560053
391 4 0.276707 0.696167 0.611639
392 4 0.298931 0.653049 0.514938
393 1 0.842198 0.624038 0.754921
394 2 0.741749 0.613365 0.741496
395 3 0.717989 0.664545 0.70392
396 3 0.706523 0.599702 0.787294
397 2 0.904964 0.659453 0.709031
398 3 0.983718 0.670352 0.730076
399 3 0.877382 0.623223 0.666711
400 1 0.889581 0.602897 0.810989
401 2 0.828428 0.586734 0.864164
402 4 0.869178 0.573457 0.914842
403 4 0.733649 0.58694 0.857158
404 2 0.996442 0.582356 0.816516
405 4 0.0212814 0.518912 0.855827
406 4 0.0569803 0.625997 0.781947
407 1 0.92003 0.822511 0.997967
408 2 0.0207425 0.827467 0.00748672
409 3 0.0348581 0.847889 0.0553451
410 3 0.0640187 0.82154 0.963712
411 2 0.856398 0.821534 0.0456287
412 3 0.772559 0.807332 0.0272034
413 3 0.897874 0.819968 0.0881569
414 1 0.881299 0.822604 0.938237
415 2 0.944282 0.851623 0.887182
416 4 0.899689 0.87332 0.837951
417 4 0.036668 0.857975 0.892685
418 2 0.77506 0.817208 0.924327
419 4 0.750584 0.817857 0.869492
420 4 0.712022 0.806813 0.966669
421 1 0.657276 0.871294 0.752083
422 2 0.761803 0.867283 0.758834
423 3 0.77517 0.913424 0.796707
424 3 0.783605 0.882058 0.712331
425 2 0.599472 0.845436 0.801347
426 3 0.51702 0.858981 0.785478
427 3 0.64172 0.795143 0.830093
428 1 0.612847 0.891694 0.697349
429 2 0.669954 0.888555 0.638847
430 4 0.619775 0.888002 0.590409
431 4 0.763237 0.88593 0.638928
432 2 0.507515 0.924322 0.692801
433 4 0.483571 0.960488 0.64254
434 4 0.450366 0.916501 0.737892
435 1 0.599865 0.5939 0.500879
436 2 0.500285 0.609963 0.48485
437 3 0.490737 0.564138 0.446804
438 3 0.457939 0.636333 0.525194
439 2 0.661755 0.553931 0.45947
440 3 0.747193 0.563488 0.477305
441 3 0.628322 0.559711 0.414289
442 1 0.634576 0.620274 0.559632
443 2 0.567288 0.653098 0.606211
444 4 0.605965 0.676872 0.657518
445 4 0.474635 0.664565 0.596938
446 2 0.740274 0.607408 0.575697
447 4 0.766139 0.628061 0.628215
448 4 0.80422 0.58141 0.536612
ITEM: TIMESTEP
2000
ITEM: NUMBER OF ATOMS
448
ITEM: BOX BOUNDS xy xz yz pp pp pp