LAMMPS data file via write_data, version 15 Apr 2020, timestep = 80000

448 atoms
4 atom types

1.8548281120531485e-01 1.3693717188794530e+01 xlo xhi
-1.4790195689483721e-01 1.3422701956894752e+01 ylo yhi
4.1260860923003939e-01 2.2267301749069837e+01 zlo zhi
-4.5642073125566762e+00 4.6006650115110990e+00 -5.3561605764976976e+00 xy xz yz

Masses

1 12.0107
2 14.0067
3 1.00794
4 15.9994

Atoms # full

1 1 1 -2.0092649951619271e-01 4.8411637284732691e+00 3.3274416446814827e+00 5.2573804494511611e+00 0 0 0
2 1 2 8.7269181266707643e-02 3.4974760925617909e+00 3.4323409309784694e+00 4.9058337875290139e+00 0 0 0
3 1 3 2.1749515939730488e-01 3.3481424997752458e+00 2.9173305408281847e+00 3.9981221995788570e+00 0 0 0
4 1 3 2.4454533151877561e-01 2.9039497147821107e+00 3.6179448889139865e+00 5.9582520898290285e+00 0 0 0
5 1 2 9.8843648894209518e-02 5.7663215868519870e+00 2.8022270577764035e+00 4.3067277044311014e+00 0 0 0
6 1 3 2.3702185495180711e-01 6.8324181397980039e+00 2.7399484150235978e+00 4.8128385144155681e+00 0 0 0
7 1 3 2.1113641967203195e-01 5.2836367197351528e+00 3.0093269914806715e+00 3.3922620159638628e+00 0 0 0
8 1 1 -1.4423742996390285e-01 5.3353359759147896e+00 3.7020868715920998e+00 6.5026034562238300e+00 0 0 0
9 1 2 3.7105108064669534e-01 4.4333477919738193e+00 4.1705990603629557e+00 7.5882946671731801e+00 0 0 0
11 1 4 -3.8350841898027310e-01 3.1528140816070103e+00 4.1279391315291614e+00 7.4568532111758117e+00 0 0 0
12 1 2 3.8672771557595020e-01 6.8261901282906550e+00 3.8492200952030138e+00 6.8628150137702839e+00 0 0 0
13 1 4 -3.6350957609141343e-01 7.1143620569370629e+00 4.3410771464129132e+00 7.9734324504438696e+00 0 0 0
14 1 4 -3.8265963063377967e-01 7.6838885034964068e+00 3.4181078484907306e+00 5.9875737387964918e+00 0 0 0
38 1 4 -3.3710448793175907e-01 -1.9764208287120466e-01 5.2877531935849698e+00 3.1005993920097228e+00 0 0 0
43 1 1 -1.9227408164140444e-01 5.9138433881355823e+00 -3.7420663407862653e+00 2.1657431008339564e+01 0 0 -1
44 1 2 8.9272161851565723e-02 4.5570943925471052e+00 -3.5090282338654006e+00 2.1445543567272331e+01 1 0 -1
45 1 3 2.0726457677198179e-01 4.2813611506959193e+00 -4.0600843863828295e+00 2.0544951786047633e+01 1 1 0
47 1 2 8.8405864023975766e-02 6.6612977124067374e+00 -4.4103721493952097e+00 2.0669050919808818e+01 0 1 0
48 1 3 2.4764776074308822e-01 7.7408732371686435e+00 -4.2865801302413997e+00 2.0925801579230090e+01 0 1 0
50 1 1 -1.3531823130451601e-01 1.9423072851164578e+00 2.0562411707735042e+00 9.7982000985408213e-01 0 0 0
51 1 2 3.8282566227340131e-01 1.1553652212049099e+00 2.6665546833962837e+00 2.0398194904600153e+00 0 0 0
52 1 4 -3.4819289466898240e-01 1.6868714901880104e+00 2.8089898251100416e+00 3.2120079968072912e+00 0 0 0
53 1 4 -3.7309803032675676e-01 -1.3637418220496356e-01 2.8693879648168372e+00 1.9188296717203388e+00 1 0 0
54 1 2 3.8191168568696487e-01 3.5047085349940494e+00 2.1162016706086018e+00 1.1110911831944685e+00 0 0 0
55 1 4 -3.7216252671313488e-01 3.9152367929346399e+00 2.5224073969631537e+00 2.2155651406211279e+00 0 0 0
56 1 4 -3.7987384977438909e-01 8.8378538347147888e+00 -3.6092600322466835e+00 2.1963961246151470e+01 0 0 -1
58 1 2 7.4318692732237429e-02 1.0250271610512211e+01 3.0988501909578741e+00 5.1892148689467374e+00 0 0 0
59 1 3 2.1979252170525204e-01 1.0039067986341875e+01 2.9792779874143327e+00 4.1174339133615803e+00 0 0 0
60 1 3 2.3581512033447616e-01 9.6938158410554855e+00 3.5090875223093692e+00 6.0621375745288395e+00 0 0 0
69 1 4 -3.6977209314876697e-01 4.7596239713656852e-01 4.1953440391125598e+00 7.9593246576315018e+00 0 0 0
70 1 4 -3.8534778768271216e-01 9.5789140520690674e-01 3.2790654906938945e+00 5.9497516823046963e+00 0 0 0
94 1 4 -3.5677248581725485e-01 6.8394943621214006e+00 4.9413903035768003e+00 3.2565466246537147e+00 0 0 0
99 1 1 -2.0504292285516704e-01 1.2820403765674470e+01 -4.2085123471970691e+00 2.1701399839103715e+01 0 0 -1
100 1 2 8.2990944911585041e-02 1.1509685576240813e+01 -3.7919019890017069e+00 2.1401716599150582e+01 0 0 -1
101 1 3 2.1348547343501886e-01 1.1159727221075382e+01 -4.3877405696964340e+00 2.0583450023223627e+01 0 1 0
102 1 3 2.2945598976794077e-01 6.2621223686227703e+00 1.8096916574750281e+00 5.1927118163509101e-01 0 0 0
103 1 2 8.6029614485311129e-02 1.3570832440887807e+01 -4.9787993645515494e+00 2.0772684350297233e+01 0 1 0
104 1 3 2.3950024985418425e-01 1.4653003855834177e+01 -4.9026969206010511e+00 2.1110948607655416e+01 0 1 0
106 1 1 -1.4794383210488390e-01 8.7484129099358530e+00 1.6559859560307131e+00 1.0610309045992050e+00 0 0 0
107 1 2 3.7474915122734931e-01 7.9343916368269296e+00 2.2659432937549728e+00 2.1426243809807475e+00 0 0 0
108 1 4 -3.4777670576384662e-01 8.5795892941173584e+00 2.6831835482835436e+00 3.1819612663216192e+00 0 0 0
109 1 4 -3.8331826898428528e-01 6.6691953877822829e+00 2.4215633244525443e+00 1.9420330605899045e+00 0 0 0
110 1 2 3.7794185127017754e-01 1.0244504783080789e+01 1.6264122091100348e+00 1.3172966329042466e+00 0 0 0
111 1 4 -3.6121456643651673e-01 1.0642845627251834e+01 2.1883181732573380e+00 2.4006504398525714e+00 0 0 0
127 1 1 -1.9529874841583053e-01 6.0146307602827109e+00 2.2554079354192473e+00 1.1846731067148408e+01 0 1 0
128 1 2 8.4508593969513671e-02 7.3711133742222312e+00 2.0100052913288793e+00 1.2115706286125333e+01 0 1 0
129 1 3 2.1464869992019903e-01 7.7104463578034119e+00 2.7222048964305854e+00 1.2886856605716261e+01 0 1 0
130 1 3 2.2292255635764702e-01 7.9063978318506676e+00 1.4768556097731058e+00 1.1251903140459751e+01 0 1 0
131 1 2 8.5598864613730841e-02 5.2479352752138198e+00 2.9424740499891429e+00 1.2749686392649167e+01 0 1 0
132 1 3 2.4654612734392217e-01 4.1135223777077510e+00 3.1375581269738833e+00 1.2234873274281444e+01 0 1 0
134 1 1 -1.4180036648561600e-01 5.4831083936627909e+00 1.6925117397299019e+00 1.0650334050589384e+01 0 1 0
135 1 2 3.7472089025705257e-01 6.3706389217574300e+00 9.8055330458984669e-01 9.5955710340861753e+00 0 1 0
136 1 4 -3.3567982445351086e-01 5.7325169666972595e+00 5.1405979079638309e-01 8.6216568844374510e+00 0 1 0
137 1 4 -3.8279182057553940e-01 7.6407692600209254e+00 8.0407165243125611e-01 9.7475076998333492e+00 0 1 0
138 1 2 3.8879847864860084e-01 4.0696247500284786e+00 1.8690300144019800e+00 1.0302576632473743e+01 0 1 0
139 1 4 -3.4951646068790487e-01 3.6352226103631771e+00 1.4176656721515246e+00 9.2105352536573939e+00 0 1 0
140 1 4 -3.8560747042018917e-01 3.2328314310466402e+00 2.5533934724754546e+00 1.1084819141916620e+01 0 1 0
141 1 1 -2.0442437675880573e-01 2.5697229820983889e+00 4.7943560158665921e-01 6.2163444537562702e+00 0 1 0
142 1 2 8.9824971496138356e-02 3.9592408181780785e+00 4.7512924976774329e-01 6.5406193097441356e+00 0 1 0
143 1 3 2.1497896743911402e-01 3.9697878595281590e+00 2.9738620901612878e-01 7.6637072639937260e+00 0 1 0
144 1 3 2.4409054585304021e-01 4.5148328121632035e+00 -7.2870490076146766e-02 5.6784407590785886e+00 0 1 0
145 1 2 9.5428383793639382e-02 1.6156328993067524e+00 8.7223040179662537e-01 7.1001554624718963e+00 0 1 0
146 1 3 2.3914353588649315e-01 1.3939355966764747e+01 7.8553317303705894e-01 6.6310983740506062e+00 -1 1 0
147 1 3 2.1189517629603216e-01 2.0746209854014874e+00 1.0996727278609189e+00 8.0440067161052546e+00 0 1 0
148 1 1 -1.4468309427436998e-01 2.0931459043135021e+00 7.9299884519892672e-02 4.9225221757274769e+00 0 1 0
149 1 2 3.7492191217037996e-01 3.1357913501541326e+00 -2.4831387539112137e-01 3.8426413315553161e+00 0 1 0
185 1 3 2.1871292618274549e-01 1.0555149009678433e+00 2.4921906231446505e+00 1.2891680661703800e+01 0 1 0
186 1 3 2.4666616938458633e-01 1.2684709300376928e+00 1.6003028315675869e+00 1.1070474067367003e+01 0 1 0
188 1 3 2.4172218104273857e-01 1.0857952456952654e+01 2.2805182619982971e+00 1.2617225355792483e+01 0 1 0
193 1 4 -3.8006222559137248e-01 1.4359575937805875e+01 1.3077779481642837e+00 9.5513478781728818e+00 -1 1 0
194 1 2 3.8314727777515128e-01 1.0744708040232400e+01 1.9086790439447539e+00 1.0324532528109030e+01 0 1 0
195 1 4 -3.6726629868708899e-01 1.0277563164384551e+01 1.5884225205719851e+00 9.1917348812810022e+00 0 1 0
196 1 4 -3.7943000088744738e-01 9.9648571240312869e+00 2.2570420397474198e+00 1.1299827122621357e+01 0 1 0
197 1 1 -2.0253783004983644e-01 9.2489015556387599e+00 3.5510438072800810e-01 6.2753784305988409e+00 0 1 0
198 1 2 8.3801444693828858e-02 1.0594051120293777e+01 2.7275887507823793e-01 6.6693492076751077e+00 0 1 0
199 1 3 2.0996525707196506e-01 1.0774798795150996e+01 8.8044464604219774e-01 7.5626271994151395e+00 0 1 0
200 1 3 2.4909846493090523e-01 1.1261983531334449e+01 -1.8284799250246953e-01 5.8030554234220348e+00 0 1 0
201 1 2 7.2085845377716437e-02 8.3695363544903287e+00 1.1854054967533401e+00 7.0687726597126757e+00 0 1 0
202 1 3 2.2641088242928231e-01 7.3641114441771753e+00 6.2724797187368364e-01 6.9510511174337317e+00 0 1 0
203 1 3 1.9676549602643428e-01 8.9213804244976682e+00 1.3008732060222972e+00 7.9872746738850839e+00 0 1 0
204 1 1 -1.4652922640455834e-01 8.7551067007648467e+00 -2.4047276953157892e-01 5.1183707939936092e+00 0 1 0
205 1 2 3.7488100189449247e-01 9.6797936443731540e+00 -8.3248106394722643e-01 4.0769272641401493e+00 0 1 0
207 1 4 -3.7502387245046942e-01 1.0964985854630999e+01 -8.1676741629756888e-01 4.3221818385598496e+00 0 1 0
208 1 2 3.7842845204966497e-01 7.2986314169780133e+00 -1.1924952178812065e-01 4.7896325252552234e+00 0 1 0
210 1 4 -3.8368856986051919e-01 6.4528369994265642e+00 3.5616261247592207e-01 5.6254141381932454e+00 0 1 0
239 1 1 -1.9180914069143506e-01 3.6068925199958635e+00 5.3255382823690622e+00 7.4233496050587733e-01 0 1 1
240 1 2 7.5454847189116256e-02 5.0320485147608780e+00 5.4242200539327170e+00 8.9868355813798162e-01 0 1 1
241 1 3 2.0300450780186774e-01 5.2191076875227598e+00 4.9230683084902092e+00 1.8185710569340416e+00 0 0 0
242 1 3 2.2749368793603705e-01 1.0025185982929973e+01 -1.4337312603689156e-01 2.1757081310024802e+01 0 1 0
243 1 2 9.4684960230998205e-02 2.7224238111869363e+00 5.7725653424680177e+00 1.7237130712727651e+00 0 0 0
244 1 3 2.3246757676755836e-01 1.6793681988785079e+00 5.2692436404116769e+00 1.6648448480959963e+00 0 0 0
245 1 3 2.1649288676182313e-01 3.3808847862008502e+00 6.3573703263206465e+00 2.6344711099799958e+00 0 0 0
246 1 1 -1.4099334388394183e-01 7.7031835517139289e+00 -6.0883696230629969e-01 2.1428461824430613e+01 0 1 0
247 1 2 3.8275990093789081e-01 8.5385876467987138e+00 -1.0339388729905927e+00 2.0254438397543929e+01 0 1 0
248 1 4 -3.3489326412662390e-01 7.9482723240737361e+00 -1.5841859449837430e+00 1.9267413536313867e+01 0 1 0
249 1 4 -3.7915589903714608e-01 9.8073405443295893e+00 -8.1620964000987595e-01 2.0264364498028897e+01 0 1 0
250 1 2 3.8190109858186932e-01 6.2050696137405676e+00 -7.5154544245135746e-01 2.1285765864692110e+01 0 1 0
251 1 4 -3.5943463321993169e-01 5.8237241553262802e+00 -1.0702831878782080e+00 2.0110605971584143e+01 0 1 0
252 1 4 -3.8686715436225488e-01 5.3848046648498311e+00 -3.9197540903512973e-01 2.2216771284532037e+01 0 1 0
253 1 1 -1.9876459701050347e-01 4.5838361383423472e+00 -2.1886459400957659e+00 1.7167239341108107e+01 0 1 0
254 1 2 9.2624191520253751e-02 5.9494449838320111e+00 -2.2285752943348869e+00 1.7468828778379113e+01 0 1 0
255 1 3 1.9371453668528119e-01 6.0438796462144273e+00 -1.3934157556554512e+00 1.8181068819838565e+01 0 1 0
256 1 3 2.4151321728114747e-01 6.4044168977739542e+00 -2.6265409605494403e+00 1.6422789179817308e+01 0 1 0
257 1 2 8.8530287133431945e-02 3.7825354941435325e+00 -1.4618789980845364e+00 1.8062850396459687e+01 0 1 0
259 1 3 2.0981216336377267e-01 4.3576240458929387e+00 -1.3610012785691161e+00 1.9057669341829481e+01 0 1 0
260 1 1 -1.4479757615206529e-01 4.0308569288156626e+00 -2.7280025735009357e+00 1.5998439601442575e+01 0 1 0
298 1 3 2.2566193077965013e-01 3.2474927442216766e+00 -8.2178871694314548e-01 2.2094674418095750e+01 0 1 0
299 1 2 9.3925146772235041e-02 9.2781725607331396e+00 5.3654497359412705e+00 1.7221081417954442e+00 0 0 0
300 1 3 2.3029540815754124e-01 8.1096997553772976e+00 5.1654333586420327e+00 1.3603140107628469e+00 0 0 0
305 1 4 -3.9849598504300054e-01 1.6572826314292431e+01 -1.2372402103461164e+00 2.0556994812993103e+01 -1 1 0
306 1 2 3.8462300351604001e-01 1.2883179655752476e+01 -9.0132712287830508e-01 2.0962339162945966e+01 0 1 0
307 1 4 -3.7469789346207333e-01 1.2502267092386258e+01 -1.2640792260493408e+00 1.9796083403858070e+01 0 1 0
308 1 4 -3.9009745785287392e-01 1.2007087919934792e+01 -4.0539588258854131e-01 2.1812076582913384e+01 0 1 0
309 1 1 -1.9124214121737354e-01 1.1367174275845867e+01 -2.3459887717346835e+00 1.7171628372923635e+01 0 1 0
310 1 2 8.3121379408419849e-02 1.2724797691690803e+01 -2.4192894927823465e+00 1.7454695471482019e+01 0 1 0
311 1 3 2.3007430358125550e-01 1.3156361813059135e+01 -1.9336493382074589e+00 1.8380915979697946e+01 0 1 0
312 1 3 2.3021066977973242e-01 1.3295205398118842e+01 -2.7524937173216020e+00 1.6506254496957496e+01 0 1 0
313 1 2 1.0004817658191785e-01 1.0476925110299305e+01 -1.7944064360272751e+00 1.8077665422428574e+01 0 1 0
314 1 3 2.3365227572219840e-01 9.3461239304223085e+00 -1.8118443146641514e+00 1.7623196687077979e+01 0 1 0
315 1 3 2.3107848661382707e-01 1.0938450343994369e+01 -1.2199511175558948e+00 1.8892161122561866e+01 0 1 0
316 1 1 -1.3629165755066183e-01 1.0863089096724408e+01 -2.8362124521103160e+00 1.5942460080831893e+01 0 1 0
317 1 2 3.7707214408357492e-01 1.1797355055955203e+01 -3.3941623578554259e+00 1.4886989261639867e+01 0 1 0
320 1 2 3.9638721110895825e-01 9.3984463865141734e+00 -2.8739872018302526e+00 1.5627296602268565e+01 0 1 0
321 1 4 -3.5997447917085057e-01 9.1497326354204738e+00 -3.4685242132110270e+00 1.4556911349638403e+01 0 1 0
322 1 4 -3.8745323863915709e-01 8.5060343265536034e+00 -2.2868657230126690e+00 1.6353352154490494e+01 0 1 0
337 1 1 -2.0590415713433904e-01 6.8084846317147285e+00 9.7348122964604800e-01 1.6655977905854918e+01 0 1 0
338 1 2 8.5905035767298854e-02 5.4284802558302641e+00 1.2432104684455791e+00 1.6386699759494462e+01 0 1 0
339 1 3 2.0216189973776433e-01 5.3026004810385414e+00 7.6251779898889849e-01 1.5445919007787747e+01 0 1 0
340 1 3 2.3176298762438155e-01 5.0262655589499481e+00 2.1821952930832706e+00 1.6830023046333110e+01 0 1 0
341 1 2 8.7811082812195601e-02 7.5991453905051980e+00 2.1201651515782771e-01 1.5802152041580101e+01 0 1 0
342 1 3 2.3301758124544256e-01 8.6489202700078582e+00 8.7878984428821472e-02 1.6278653889207213e+01 0 1 0
343 1 3 2.2081348063761502e-01 7.1187190202791779e+00 1.7092139787295668e-01 1.4804234389004458e+01 0 1 0
344 1 1 -1.4124219881573363e-01 7.3795874230559697e+00 1.4710124997339928e+00 1.7848105113681171e+01 0 1 0
347 1 4 -3.7006999566233795e-01 5.2231346927296869e+00 2.4839701344956175e+00 1.8443729457678032e+01 0 1 0
348 1 2 3.8731037801997087e-01 8.8928969297906360e+00 1.5058787788729928e+00 1.8083620541827933e+01 0 1 0
350 1 4 -3.8794645300320013e-01 9.6613231174225476e+00 8.5040655268363530e-01 1.7273101307044357e+01 0 1 0
379 1 1 -1.9507269688047368e-01 3.3243691608834398e+00 -1.3007053445817163e+00 1.1204575062173745e+01 0 1 0
380 1 2 1.5921239969481477e-01 2.0035934276273060e+00 -1.2124384822886154e+00 1.1045879544693531e+01 1 1 0
381 1 3 2.0840508667776439e-01 1.5383107468573312e+01 -1.7188317679616554e+00 1.0084134015338355e+01 0 1 0
383 1 2 7.2622511512111187e-02 4.2113704160266350e+00 -1.8743653236222557e+00 1.0228743758284686e+01 0 1 0
384 1 3 2.2753041722801656e-01 5.2747598423518767e+00 -1.9303784623028886e+00 1.0683904462281131e+01 0 1 0
386 1 1 -1.4341389868484844e-01 3.8793170367779757e+00 -8.1802538821936066e-01 1.2492621130503981e+01 0 1 0
387 1 2 3.4898982821988606e-01 3.1197201597678164e+00 -1.8195388076144958e-01 1.3374735210022624e+01 0 1 0
388 1 4 -3.5330107579270764e-01 3.3953331675225531e+00 3.4203256423667172e-01 1.4426719229002629e+01 0 1 0
390 1 2 3.8418034179392990e-01 5.4680650748508075e+00 -9.4540362650687859e-01 1.2849155237419936e+01 0 1 0
391 1 4 -3.7152986687007378e-01 5.7392696027396148e+00 -3.5044763541182888e-01 1.3946651667807746e+01 0 1 0
392 1 4 -3.8989813355359393e-01 6.2101065422742749e+00 -1.3934025027558277e+00 1.1931045535462411e+01 0 1 0
394 1 2 8.1086684426526792e-02 1.2155464117792846e+01 1.1697521124710444e+00 1.6442570279598065e+01 0 1 0
395 1 3 2.0815215948113516e-01 1.1936959902844407e+01 7.7423999039473390e-01 1.5395532512857793e+01 0 1 0
396 1 3 2.2793425078823495e-01 1.1575136534323821e+01 1.7371238435518563e+00 1.7146279423315299e+01 0 1 0
404 1 2 3.8898164609730124e-01 2.1175981839913085e+00 1.6234981808465685e+00 1.8034173852718176e+01 1 1 0
405 1 4 -3.6850146508000331e-01 2.4943216048110619e+00 2.1763440653349866e+00 1.9101135997682135e+01 0 1 0
406 1 4 -3.8166387401221985e-01 2.8856919481105088e+00 9.9678685058805705e-01 1.7210331234823570e+01 0 1 0
435 1 1 -1.9512665806630350e-01 1.0105120661285014e+01 -1.3736943248043216e+00 1.1258180361195826e+01 0 1 0
436 1 2 8.3667854426008992e-02 8.7288648816360830e+00 -1.3358857160100437e+00 1.0959844182520596e+01 0 1 0
437 1 3 2.1046391882516266e-01 8.5772414031622652e+00 -1.7843539274655176e+00 9.9668257602116412e+00 0 1 0
438 1 3 2.3348029101189660e-01 8.1481952647679670e+00 -7.8400423842284894e-01 1.1774920780164274e+01 0 1 0
439 1 2 7.7650926532540576e-02 1.1021585594724323e+01 -1.8333254670652621e+00 1.0286773446135294e+01 0 1 0
440 1 3 2.2812286656660766e-01 1.1923729208944021e+01 -2.1255423235232058e+00 1.0959097553631468e+01 0 1 0
442 1 1 -1.4345706231006886e-01 1.0570464368653731e+01 -9.0850341402036028e-01 1.2508584887111928e+01 0 1 0
443 1 2 3.7797387893126633e-01 9.6472489459311852e+00 -4.2077999243021491e-01 1.3559216114066841e+01 0 1 0
444 1 4 -3.4110548270248675e-01 1.0196695380149022e+01 -3.2508829010695184e-02 1.4628921076454928e+01 0 1 0
445 1 4 -3.8284720344313194e-01 8.3790535757776077e+00 -2.8223033350432125e-01 1.3303771909266700e+01 0 1 0
446 1 2 3.7896190669653756e-01 1.2030946812503808e+01 -9.7259358061786561e-01 1.2927143702545553e+01 0 1 0
447 1 4 -3.8260306981551595e-01 1.2349799073775880e+01 -3.6027348046481356e-01 1.4016064651863330e+01 0 1 0
448 1 4 -3.8669233542565989e-01 1.2876343993741386e+01 -1.5721960824748413e+00 1.2169773667115258e+01 0 1 0
261 1 2 3.7778571458810123e-01 4.9201336194427885e+00 -3.4271997539576051e+00 1.4954897398351028e+01 0 1 0
319 1 4 -3.9239506944882940e-01 1.3095275134036921e+01 -3.3124408827758289e+00 1.4990428417219311e+01 0 1 0
151 1 4 -3.8386130247493933e-01 4.4036925490179435e+00 -2.2333771494185140e-01 4.0366678925391835e+00 0 1 0
209 1 4 -3.8308870795257838e-01 6.9602929105598541e+00 -4.7258317444615883e-01 3.6065328709865665e+00 0 1 0
49 1 3 2.1934412137510320e-01 6.1780542094409423e+00 -4.5899474953581398e+00 1.9659841494589742e+01 0 1 0
46 1 3 2.2564878229309121e-01 4.0893647538024620e+00 -2.7673807673924897e+00 2.2245808807236060e+01 1 0 -1
57 1 1 -1.9037515642150393e-01 1.1656417997579387e+01 3.2415767619394451e+00 5.3938105515142905e+00 0 0 0
61 1 2 1.0155882302985085e-01 1.2553888412349115e+01 2.9661786452579761e+00 4.3226078717394030e+00 0 0 0
62 1 3 2.4252772627554400e-01 1.7536660032387497e-01 2.8202186720520830e+00 4.6475784235529467e+00 1 0 0
63 1 3 2.0646521711807458e-01 1.2054391930632788e+01 2.3517256435560379e+00 3.5499872501167644e+00 0 0 0
64 1 1 -1.3494117021952720e-01 1.2174418683205980e+01 3.6679609210414759e+00 6.5844589165678986e+00 0 0 0
65 1 2 3.7398272446707859e-01 1.1124612539411656e+01 4.2053577784947480e+00 7.7200100724890737e+00 0 0 0
68 1 2 3.8706719406981488e-01 1.1855312931898632e-01 3.7110640548748752e+00 6.8450305860274803e+00 1 0 0
112 1 4 -3.7779076689924529e-01 1.1013227968052208e+01 9.3465597719816906e-01 5.6527109137361298e-01 0 0 0
152 1 2 3.7852363254529714e-01 7.0456437126852034e-01 -8.7141869942721328e-02 4.5194863092919979e+00 0 1 0
154 1 4 -3.8878740423861580e-01 1.3263055998094853e+01 2.9864401810356433e-01 5.3557067733618453e+00 0 1 0
178 1 4 -3.5409181401239148e-01 1.3425571673515696e+01 -1.8912245691514824e+00 8.9838210128288818e+00 0 1 0
183 1 1 -1.8912022469207679e-01 1.2812272783053269e+01 2.1276640817163788e+00 1.1793310973996357e+01 0 1 0
184 1 2 9.7352001581516134e-02 1.4198969444313438e+01 2.0654901571454629e+00 1.1952958366097375e+01 -1 1 0
187 1 2 9.7999086672033553e-02 1.2026817586725874e+01 2.4852688480808776e+00 1.2829466256862840e+01 0 1 0
190 1 1 -1.4324815443021260e-01 1.2236414247359777e+01 1.7755568047283834e+00 1.0521655176216397e+01 0 1 0
191 1 2 3.8277403687796407e-01 1.3060451342612010e+01 1.3762687696492213e+00 9.3767980392277046e+00 0 1 0
192 1 4 -3.5648638705997865e-01 1.2497949186536157e+01 9.7951756110055221e-01 8.3094998863852041e+00 0 1 0
258 1 3 2.4466545985412452e-01 1.6130451805156415e+01 -1.3909135859307700e+00 1.7477283527755070e+01 -1 1 0
264 1 2 3.7628930692246321e-01 1.6110234639198104e+01 -2.6957264883319434e+00 1.5737049009088548e+01 -1 1 0
265 1 4 -3.7434174510919171e-01 1.5762194746075751e+01 -3.2943276306616545e+00 1.4646179270529863e+01 0 1 0
266 1 4 -4.0434446477771957e-01 1.5257777886936797e+01 -1.9570314729661900e+00 1.6412746693214721e+01 0 1 0
290 1 4 -3.4856773562830551e-01 1.6024535607817910e+01 -4.8187972059908439e+00 1.9651348379189471e+01 0 1 0
295 1 1 -1.9399742887741872e-01 1.0132724603150855e+01 4.9651220313753672e+00 7.7581973178315000e-01 0 1 1
296 1 2 7.6563470549471990e-02 1.1519162579816077e+01 5.0660410495644390e+00 1.0970434403585645e+00 -1 1 1
297 1 3 2.1220110499253281e-01 1.1532209805090661e+01 5.0682278949348021e+00 2.1670158644401427e+00 -1 0 0
301 1 3 2.0799096744390749e-01 9.7947152994610640e+00 5.7475637670450004e+00 2.6388296876444572e+00 0 0 0
302 1 1 -1.4375807538260271e-01 1.4329778521787993e+01 -8.9086651753441171e-01 2.1367951682042346e+01 0 1 0
303 1 2 3.7108294371479855e-01 1.5308459592004132e+01 -1.1867564826713868e+00 2.0277582141698076e+01 0 1 0
304 1 4 -3.5687735195061038e-01 1.4761828475892372e+01 -1.5269159511202530e+00 1.9169351907505806e+01 0 1 0
382 1 3 2.9838706135322013e-01 1.4634016616419595e+01 -6.8277057330567947e-01 1.3191275634912758e+01 0 1 0
389 1 4 -4.3458255641065968e-01 1.5125233312231407e+01 -1.3623113099838990e-01 1.2677983618527096e+01 0 1 0
393 1 1 -1.8769168629225147e-01 1.3562854466786188e+01 1.1140276498123440e+00 1.6615526707810766e+01 0 1 0
397 1 2 7.1948370634154879e-02 1.4342879559046249e+01 4.1718565513114703e-01 1.5681712255321886e+01 0 1 0
398 1 3 2.3264059145166885e-01 1.5456764387556795e+01 5.2054596354565774e-01 1.5985606696532212e+01 0 1 0
399 1 3 1.7895937869509435e-01 1.3826328732600629e+01 -2.8054621703229765e-01 1.5058871078203772e+01 0 1 0
400 1 1 -1.3655079053626254e-01 1.4145169584702028e+01 1.6234909842716627e+00 1.7741533033367077e+01 0 1 0
122 1 4 -3.4998019001728642e-01 6.6682494759346875e+00 -2.1545186091036950e+00 8.9357488630287651e+00 0 1 0
153 1 4 -3.6576091140691802e-01 1.3991800508293339e+01 -6.2120422558102573e-01 3.3497445462367614e+00 0 1 0
10 1 4 -3.3768452209449934e-01 4.9672143878840291e+00 4.4704799165655595e+00 8.7224921408437375e+00 0 0 0
29 1 1 -1.8174960943011564e-01 -1.4756238425068791e-02 6.9325292382236192e+00 6.3784524176055895e+00 0 0 0
30 1 2 7.8734499261314844e-02 1.4008860580861582e+00 6.9151657710657970e+00 6.5703445395879925e+00 0 0 0
32 1 3 2.3040826596891129e-01 2.0196231146552095e+00 6.2883378331980122e+00 5.7370669901497040e+00 0 0 0
36 1 1 -1.4649357511471545e-01 -5.2614942939844300e-01 6.4705261142500916e+00 5.1461055131616327e+00 0 0 0
37 1 2 3.7571188224738572e-01 3.7062601860907107e-01 5.7747957429827057e+00 4.0901813668144387e+00 0 0 0
39 1 4 -3.7576669498720028e-01 1.6379731123697070e+00 5.6016211795251545e+00 4.3581746273173341e+00 0 0 0
67 1 4 -3.7608210259667962e-01 9.8522679021904676e+00 4.2499557414104538e+00 7.5068432390821735e+00 0 0 0
85 1 1 -2.0081259204298826e-01 6.7889750522357266e+00 6.7710361736179170e+00 6.3762647616970041e+00 0 0 0
86 1 2 8.1967130391855658e-02 8.1900587553923536e+00 6.7823189635997476e+00 6.6539949985615703e+00 0 0 0
88 1 3 2.2255042992703739e-01 8.7545787301520352e+00 6.9027443048022024e+00 5.7464179430924736e+00 0 0 0
92 1 1 -1.4445696318029219e-01 6.3754480226764283e+00 6.4356635266763327e+00 5.0470926352386654e+00 0 0 0
93 1 2 3.7976383381481105e-01 7.3695077801911584e+00 5.6566785842410798e+00 4.1375392301084588e+00 0 0 0
95 1 4 -3.6300086414570232e-01 8.6156446045309121e+00 5.8571361531789332e+00 4.3858614950706745e+00 0 0 0
96 1 2 3.7596497650802263e-01 5.0561642563781630e+00 6.6844983641386326e+00 4.5044213980146006e+00 0 0 0
97 1 4 -3.8393924512785021e-01 4.8013781038734580e+00 6.4099956626326025e+00 3.2724160439100851e+00 0 0 0
98 1 4 -3.9099214562667289e-01 4.1081107886379655e+00 7.0596857963225430e+00 5.3253819431957385e+00 0 0 0
133 1 3 2.0474370285665200e-01 5.7483993207554995e+00 3.0546696350657530e+00 1.3690754402719936e+01 0 1 0
155 1 1 -1.9000993534932578e-01 3.5250345684576554e+00 3.2343470744467586e+00 2.1997215751430531e+01 0 0 -1
156 1 2 1.6421359801071897e-01 2.3157184432444153e+00 3.6353956816546127e+00 2.1514972280573502e+01 1 0 -1
157 1 3 2.2123001126836186e-01 2.1533997035685166e+00 3.1833654386693313e+00 2.0528868571484843e+01 1 1 0
159 1 2 7.7214155049949815e-02 4.2887670105019744e+00 2.2875280780350664e+00 2.1298165975234504e+01 0 1 0
160 1 3 2.3266705304942714e-01 5.3032926712875259e+00 2.0883809638828730e+00 2.1923915519770112e+01 0 1 0
161 1 3 2.0909758829021463e-01 3.9406024969437499e+00 2.2117205485663813e+00 2.0218540384323390e+01 0 1 0
162 1 1 -1.4172794707227804e-01 -5.8787035613232286e-01 9.0635975118346614e+00 1.4146007126586504e+00 0 0 0
166 1 2 3.7311232909505720e-01 9.4500758029107179e-01 8.7364369330822811e+00 1.9506114330769426e+00 0 0 0
168 1 4 -3.9005294497377957e-01 1.6767932579454503e+00 8.0538745970203109e+00 1.1702483341269323e+00 0 0 0
211 1 1 -1.9264077301838994e-01 1.0317456861379453e+01 3.0727089220033790e+00 2.2034644275692997e+01 0 0 -1
212 1 2 1.7783450664762029e-01 9.0205920788500791e+00 3.3596128648843786e+00 2.1723524324493930e+01 0 0 -1
213 1 3 2.1399464793147355e-01 8.8161344272516580e+00 2.9408941269986872e+00 2.0790106844910916e+01 0 1 0
215 1 2 7.4814088425362080e-02 1.1143960586282622e+01 2.3096717794203343e+00 2.1125164078500703e+01 0 1 0
216 1 3 2.2908925359687149e-01 1.2210580209035857e+01 2.1747760780979846e+00 2.1584949403168324e+01 0 1 0
217 1 3 2.1718619340583029e-01 1.0725544729535340e+01 2.5300924705388681e+00 2.0152784152100757e+01 0 1 0
218 1 1 -1.4383966813091120e-01 6.2762569205562562e+00 8.8616888558100833e+00 1.4737543422272741e+00 0 0 0
222 1 2 3.6808346540025183e-01 7.8089434687196038e+00 8.5571424448102817e+00 1.8857064977839009e+00 0 0 0
224 1 4 -3.8575992307850382e-01 8.5210221533567019e+00 7.8816317209005993e+00 1.1001106746999882e+00 0 0 0
267 1 1 -1.9304203791234809e-01 1.5177439900327077e+00 5.3831073995210152e+00 1.0810440604253694e+01 0 0 0
268 1 2 8.8222233133894851e-02 2.1526908444695625e-01 5.6791443553192273e+00 1.0343651199000170e+01 1 0 0
269 1 3 2.1724768822782248e-01 5.3596982437968954e-03 5.0564738199711483e+00 9.4574676795347514e+00 1 0 0
271 1 2 9.3082468704764068e-02 2.4162402257153515e+00 4.8188786490308093e+00 9.8670754282598416e+00 0 0 0
272 1 3 2.4533584945394188e-01 3.4626558909117469e+00 4.5966182579880774e+00 1.0272886703110398e+01 0 0 0
273 1 3 2.1964399696512063e-01 1.9298315374312187e+00 4.4215849941137426e+00 8.9343328090190823e+00 0 0 0
274 1 1 -1.3940884418744851e-01 1.9009321279483529e+00 5.6911807472332647e+00 1.2140928939491685e+01 0 0 0
278 1 2 3.7407078663750626e-01 3.3269556935415068e+00 5.5169782534496115e+00 1.2465496392190515e+01 0 0 0
280 1 4 -3.8871806945628906e-01 4.2004260689254576e+00 5.1240682003159046e+00 1.1589100021381826e+01 0 0 0
323 1 1 -1.9523943565123772e-01 8.1386288011709560e+00 5.3820800762768135e+00 1.0864949824313163e+01 0 0 0
324 1 2 1.6608146672996960e-01 6.9159322602515214e+00 5.6768801047656767e+00 1.0545288761132008e+01 0 0 0
325 1 3 2.0700693428614864e-01 6.7638349446095045e+00 5.3386418678192085e+00 9.5188890516838995e+00 0 0 0
326 1 3 2.9468161441322061e-01 5.8900851123798326e+00 5.7134392008979029e+00 1.2806577454587153e+01 0 0 0
327 1 2 8.0228996118457879e-02 8.9237033491618156e+00 4.5358538206482395e+00 9.9257419874325894e+00 0 0 0
328 1 3 2.3802028809538939e-01 9.9669408468977316e+00 4.5441768055806495e+00 1.0349474037445315e+01 0 0 0
329 1 3 2.0438516825399788e-01 8.6852946882293249e+00 4.9204673251316287e+00 8.9636887062628006e+00 0 0 0
330 1 1 -1.4182891906906533e-01 8.6740137628411773e+00 5.7893821941939043e+00 1.2153204632553077e+01 0 0 0
334 1 2 3.9397063174271935e-01 1.0250953254060320e+01 5.6080532596676518e+00 1.2458454896336658e+01 0 0 0
336 1 4 -3.5886527527872814e-01 1.0934385645389131e+01 4.9846495512661297e+00 1.1596923538649524e+01 0 0 0
345 1 2 3.8539497446875209e-01 6.4129793992394770e+00 2.0983818875181708e+00 1.8780000478981506e+01 0 1 0
346 1 4 -3.2697428155468516e-01 6.8882639801203371e+00 2.1206216292361653e+00 1.9963900071539811e+01 0 1 0
349 1 4 -3.6384927112422694e-01 9.2801071858788902e+00 2.2401577182051744e+00 1.9032797233598686e+01 0 1 0
365 1 1 -1.9829512786406911e-01 2.6465765119689837e+00 4.6856273221060638e+00 1.7107422731812385e+01 0 1 0
366 1 2 7.2693817846655906e-02 4.0008972553768523e+00 4.7095677746257296e+00 1.7429814949951627e+01 0 1 0
367 1 3 2.1620540116735307e-01 4.2863402184115156e+00 5.0951279401129863e+00 1.8406843093646685e+01 0 1 0
368 1 3 2.1698683972486990e-01 4.6620582016492413e+00 4.3737023082881263e+00 1.6534274689776886e+01 0 1 0
372 1 1 -1.4318474799226075e-01 2.2306294302012297e+00 4.1226654336219513e+00 1.5882540744403274e+01 0 1 0
373 1 2 3.8073641067554331e-01 3.1831838942252464e+00 3.4533754110754460e+00 1.4921181063697363e+01 0 1 0
374 1 4 -3.4128770509646367e-01 2.6183350097810578e+00 2.9248646823769895e+00 1.3928827755472597e+01 0 1 0
375 1 4 -4.0633246021353298e-01 4.4489879815597710e+00 3.4290439382790274e+00 1.5188877959590576e+01 0 1 0
403 1 4 -3.8799628214188941e-01 1.1939789795690992e+01 2.3015229359980065e+00 1.8644528050081782e+01 0 1 0