LAMMPS data file via write_data, version 15 Apr 2020, timestep = 80000

672 atoms
4 atom types

9.7500535085242035e-02 2.9884499815913941e+01 xlo xhi
8.0360618814113050e-01 1.1350394094158844e+01 ylo yhi
-1.4229670032726727e+00 2.1439967201672893e+01 zlo zhi
7.6378301346432600e-02 6.1708923009206618e-01 2.9589790048939635e-01 xy xz yz

Masses

1 12.0107
2 14.0067
3 15.9994
4 1.00794

Atoms # full

1 1 1 -1.3653931936670829e-02 4.4377905514379981e+00 1.9312495015355351e+00 2.1319405747107409e+00 0 0 0
2 1 1 -9.8847766103846678e-03 1.9379181998529734e+01 2.0605161463135073e+00 2.3824479735145823e+00 0 0 0
3 1 1 -9.5213390684730052e-03 1.0997660348930646e+01 1.0615814570128972e+01 1.3792755599340735e+01 0 0 0
4 1 1 -6.6865349985325874e-03 2.5929182425926420e+01 1.0468004481887018e+01 1.3590360189107102e+01 0 0 0
5 1 1 -8.3828504913239545e-03 1.2156409072874938e+01 1.0475086528984896e+01 2.1395242399315628e+00 0 0 0
6 1 1 -1.4370567208674717e-02 2.7031523314717976e+01 1.0443194712457885e+01 2.4392567052317671e+00 0 0 0
7 1 1 -1.1431219470806307e-02 3.3261576631854393e+00 1.9173718191354605e+00 1.3536177250597850e+01 0 0 0
8 1 1 -8.1473438302775217e-03 1.8469989265344097e+01 1.9274794016693320e+00 1.3299506416782767e+01 0 0 0
9 1 1 -7.0956684708513781e-03 4.7285726391902632e+00 7.1109084333338988e+00 2.2589867898805003e+00 0 0 0
10 1 1 -1.4765317084166722e-03 1.9631017744244751e+01 7.5931723408456122e+00 2.1033007861120274e+00 0 0 0
11 1 1 -7.3067203380484010e-03 1.0867814171815406e+01 5.3948506526182358e+00 1.3792888255321825e+01 0 0 0
12 1 1 -5.5589523160323832e-03 2.6102838830150851e+01 4.9384792281485259e+00 1.3663331055503940e+01 0 0 0
13 1 1 -6.8203096906587525e-03 1.2165108711371930e+01 5.0748172285651245e+00 2.2570917091617542e+00 0 0 0
14 1 1 -1.2166920689390848e-02 2.7278068412119769e+01 4.7247736457223866e+00 2.5025786251197464e+00 0 0 0
15 1 1 -8.1818387557452237e-03 3.6485365552372144e+00 7.1332403285423256e+00 1.3323666618792892e+01 0 0 0
16 1 1 -1.2677046722158410e-02 1.8578001692086779e+01 7.5495017041775290e+00 1.3580234306010009e+01 0 0 0
17 1 1 -6.4661139790164135e-02 5.8060890681834101e+00 1.5646196969566470e+00 2.1751446315834797e+00 0 0 0
18 1 1 -6.7550786316261741e-02 2.0748282031357927e+01 1.6248219144299894e+00 2.2389433997950241e+00 0 0 0
19 1 1 -6.7141814819738618e-02 9.6041153967934498e+00 1.0845880889336652e+01 1.3610813789999845e+01 0 0 0
20 1 1 -6.2413371796807962e-02 2.4566414330985953e+01 1.0911285414511248e+01 1.3342357467305773e+01 0 0 0
21 1 1 -6.1671550539857317e-02 1.3546364288262216e+01 1.0786305276730893e+01 2.0657027149095226e+00 0 0 0
22 1 1 -6.4021049568129429e-02 2.8449370682878179e+01 1.0639947067182803e+01 2.4977136356371905e+00 0 0 0
23 1 1 -6.8171131329059276e-02 1.9532989345746632e+00 1.5892415722133650e+00 1.3424124918253833e+01 0 0 0
24 1 1 -6.9788891278744963e-02 1.7037721621937237e+01 1.6881292770748535e+00 1.3236935303842026e+01 0 0 0
25 1 1 -6.6927393713651834e-02 6.1100855384272075e+00 6.8117329363232697e+00 2.0959665254370279e+00 0 0 0
26 1 1 -6.6558953738220891e-02 2.1014994759833250e+01 7.2034335070856992e+00 2.0467352554751908e+00 0 0 0
27 1 1 -6.0959773201099438e-02 9.5153123972789153e+00 5.7724371558370411e+00 1.3590421584002879e+01 0 0 0
28 1 1 -6.6676824372116250e-02 2.4750573962367064e+01 5.3967127510828456e+00 1.3542706838811029e+01 0 0 0
29 1 1 -5.9861842221614558e-02 1.3566931457121195e+01 5.3730354373669513e+00 2.0570167547791289e+00 0 0 0
30 1 1 -6.2540670774815593e-02 2.8676828126846278e+01 4.9238306876564764e+00 2.3010648627214865e+00 0 0 0
31 1 1 -7.3267096067294341e-02 2.2465789287057683e+00 6.8666825098606177e+00 1.3314208803238309e+01 0 0 0
32 1 1 -6.6428933258562264e-02 1.7299399126626856e+01 6.9235191166650658e+00 1.3367739046344891e+01 0 0 0
33 1 1 -8.9366002497381039e-02 6.6337911296524412e+00 1.9412129546149464e+00 1.1003272109480902e+00 0 0 0
34 1 1 -9.0522907678452863e-02 2.1454437619233950e+01 2.1410147333673488e+00 1.0945455021445309e+00 0 0 0
35 1 1 -9.0336807052806764e-02 8.9887805417036795e+00 1.0147542945870018e+01 1.2573352022578437e+01 0 0 0
36 1 1 -9.3895920224857543e-02 2.3766110997968035e+01 1.0303879209760471e+01 1.2335898213840473e+01 0 0 0
37 1 1 -9.9483721108629408e-02 1.4305705183835919e+01 1.0160120416701478e+01 1.0555015734832032e+00 0 0 0
38 1 1 -9.9138568828897419e-02 2.9254839043176165e+01 1.0107362636361835e+01 1.4712340155899857e+00 0 0 0
39 1 1 -9.8139515762109997e-02 1.2512692441974744e+00 2.3209088211422979e+00 1.2403104758813441e+01 0 0 0
40 1 1 -1.0158862543677712e-01 1.6293631322643897e+01 2.4080149777773654e+00 1.2306718660632491e+01 0 0 0
41 1 1 -9.2991591339569191e-02 6.7512198966904355e+00 7.4091318646662732e+00 9.8839524612250829e-01 0 0 0
42 1 1 -9.6768568529525839e-02 2.1729739756503601e+01 7.8560329042208545e+00 1.0348770505848042e+00 0 0 0
43 1 1 -9.2889231950284090e-02 8.7865591522333073e+00 5.1264854842038590e+00 1.2536452614951287e+01 0 0 0
44 1 1 -9.2954855547272286e-02 2.4109433134548716e+01 4.9574364808335165e+00 1.2345826903604541e+01 0 0 0
45 1 1 -8.9413460271554002e-02 1.4195105051207060e+01 4.8273501236907084e+00 8.9840306792995328e-01 0 0 0
46 1 1 -9.2640918164239056e-02 2.9224471602052699e+01 4.1823683878657461e+00 1.2061398444574438e+00 0 0 0
47 1 1 -9.3536780992243843e-02 1.5166513567704842e+00 7.6528516497870367e+00 1.2378006187285269e+01 0 0 0
48 1 1 -9.6365854493078801e-02 1.6517059396333753e+01 7.5356057290932998e+00 1.2340842105192497e+01 0 0 0
49 1 1 -5.3291595148889231e-02 6.1913897913684952e+00 2.8849605808104850e+00 1.2083932587029556e-01 0 0 0
50 1 1 -4.7240273209256570e-02 2.0899576272182479e+01 3.0759353117789172e+00 1.9116427667958225e-01 0 0 0
51 1 1 -5.6238232175324122e-02 9.6584270542124369e+00 9.1550525425075193e+00 1.1802648909597499e+01 0 0 0
52 1 1 -5.8022087477967402e-02 2.4242326845803412e+01 9.1901785586901568e+00 1.1590045156251357e+01 0 0 0
53 1 1 -5.8770096867249808e-02 1.3737604256662051e+01 9.1155116344927016e+00 2.9588757756051187e-01 0 0 0
54 1 1 -5.2624479947069244e-02 2.8660270074249336e+01 9.1199482184791201e+00 5.6980251698939455e-01 0 0 0
55 1 1 -4.0336003110980186e-02 1.8221530511440063e+00 3.3288027044490258e+00 1.1652838183844585e+01 0 0 0
56 1 1 -5.6735735353325836e-02 1.6881337488353914e+01 3.3520968179698696e+00 1.1365534545171814e+01 0 0 0
57 1 1 -4.6955512623338316e-02 6.1593289508565086e+00 8.4180634449419820e+00 2.1093478368520358e-01 0 0 0
58 1 1 -5.1229437266495467e-02 2.1081861504698612e+01 8.7119509830640034e+00 1.0370372950773676e-01 0 0 0
59 1 1 -4.4392571840101508e-02 9.3068973039978395e+00 3.9910531590591689e+00 1.1808855253255761e+01 0 0 0
60 1 1 -5.1604866238987593e-02 2.4511528013423764e+01 3.8549722664993928e+00 1.1519704915108294e+01 0 0 0
61 1 1 -4.7226266117852800e-02 1.3504757035988295e+01 3.8788440902339532e+00 1.0443165664895582e-01 0 0 0
62 1 1 -5.6866965906281895e-02 2.8557104544525881e+01 3.3088385758906451e+00 3.5067382927768276e-01 0 0 0
63 1 1 -4.5591440646701495e-02 2.0002659857364491e+00 8.7363404699369234e+00 1.1664824909188109e+01 0 0 0
64 1 1 -5.0862608576459370e-02 1.6982217329654979e+01 8.5984508599943812e+00 1.1503543418332733e+01 0 0 0
65 1 1 -1.0019574580751635e-01 4.8382327604387196e+00 3.3349622042200413e+00 2.0107755597428389e-01 0 0 0
66 1 1 -9.7170145694261204e-02 1.9554073887711937e+01 3.4712861099685881e+00 4.7293682783125113e-01 0 0 0
67 1 1 -9.4909559310058456e-02 1.1005171428454082e+01 8.8892357237436919e+00 1.2112836087335749e+01 0 0 0
68 1 1 -9.1414716600196344e-02 2.5563663750892999e+01 8.7220479524067542e+00 1.1936236179605499e+01 0 0 0
69 1 1 -9.6709915033597604e-02 1.2305708532998109e+01 8.9487918622031977e+00 3.4502951940610016e-01 0 0 0
70 1 1 -9.6017098546483215e-02 2.7253479556853403e+01 8.9079747977456556e+00 6.1869046348995216e-01 0 0 0
71 1 1 -9.8151552639983070e-02 3.1417635602793781e+00 3.6449437401407714e+00 1.1944498458352490e+01 0 0 0
72 1 1 -8.9808369288494894e-02 1.8274370997879696e+01 3.5421269221356577e+00 1.1559297931122002e+01 0 0 0
73 1 1 -9.1299773668939765e-02 4.8392784337700849e+00 8.7424467517111388e+00 5.5484572375884578e-01 0 0 0
74 1 1 -9.2546719757177487e-02 1.9781261879329495e+01 9.1579525444911205e+00 4.4834494964658367e-01 0 0 0
75 1 1 -9.9846909334032119e-02 1.0606039296962782e+01 3.5399304207072100e+00 1.2185223668591865e+01 0 0 0
76 1 1 -8.8638705299506099e-02 2.5834451320767378e+01 3.4247367812318101e+00 1.1802390566347331e+01 0 0 0
77 1 1 -9.0372295361967517e-02 1.2213010989738926e+01 3.4572301463819848e+00 4.9558075274836932e-01 0 0 0
78 1 1 -9.4355001717596171e-02 2.7181419579492257e+01 3.0943546103110906e+00 7.1261695728516417e-01 0 0 0
79 1 1 -1.0174636755932795e-01 3.3680790545308734e+00 8.9986397064780235e+00 1.1776317540483575e+01 0 0 0
80 1 1 -9.4065724861689820e-02 1.8235317443154354e+01 9.1008231903694679e+00 1.1842925689558841e+01 0 0 0
81 1 1 -6.3574918363704269e-02 3.9250579786346789e+00 2.7608138206393793e+00 1.1558528307954390e+00 0 0 0
82 1 1 -6.4397490890580694e-02 1.8824506864908724e+01 3.0708797033047004e+00 1.5861632559658019e+00 0 0 0
83 1 1 -6.6554249869891668e-02 1.1724208092407556e+01 9.6033958304523210e+00 1.3118530240505621e+01 0 0 0
84 1 1 -5.4045420304689021e-02 2.6405546309279270e+01 9.3564524326914054e+00 1.2857980807478844e+01 0 0 0
85 1 1 -6.8942687163529498e-02 1.1490261799869453e+01 9.5564668357841320e+00 1.3133213897323488e+00 0 0 0
86 1 1 -5.7012560582417798e-02 2.6418357004278715e+01 9.5862758904150880e+00 1.5071136102740486e+00 0 0 0
87 1 1 -8.1568313666872005e-02 3.9989026567613744e+00 3.0075982763307998e+00 1.2895722834521226e+01 0 0 0
88 1 1 -5.7459220349164078e-02 1.9099189700032088e+01 2.9642245876349382e+00 1.2569994332429710e+01 0 0 0
89 1 1 -6.1484304756599474e-02 4.0252859800435754e+00 8.0890410536652908e+00 1.5148363199036252e+00 0 0 0
90 1 1 -5.6213253119465303e-02 1.8988508656848015e+01 8.6710413933417740e+00 1.4689655082273902e+00 0 0 0
91 1 1 -6.5364646314688107e-02 1.1356699172596050e+01 4.2465798055710948e+00 1.3107328486477895e+01 0 0 0
92 1 1 -5.9752300543155300e-02 2.6690258506191967e+01 3.9802553172221815e+00 1.2770571104099128e+01 0 0 0
93 1 1 -6.2519181264681631e-02 1.1510661901555222e+01 4.0686071228822467e+00 1.5109486739175741e+00 0 0 0
94 1 1 -7.1244051977736284e-02 2.6533147267513240e+01 3.7465876636406792e+00 1.8018107248510020e+00 0 0 0
95 1 1 -6.8298743971867526e-02 4.2177076849466886e+00 8.2589174354157855e+00 1.2666087978211349e+01 0 0 0
96 1 1 -7.3788913406102025e-02 1.9087487985931229e+01 8.6005884889193620e+00 1.2864607461113929e+01 0 0 0
97 1 1 -3.1894432619533364e-01 3.4704468725485649e+00 1.3453196693059208e+00 3.2259631685601695e+00 0 1 0
98 1 1 -3.1023083836484139e-01 1.8503209398162330e+01 1.6070128897585840e+00 3.5687997404445362e+00 0 1 0
99 1 1 -3.0637112375291436e-01 1.1734227447567122e+01 1.1543652283793623e+01 1.4798092011728871e+01 0 -1 0
100 1 1 -3.0328655955399769e-01 2.6683925056061828e+01 1.1097358887588481e+01 1.4791082253253792e+01 0 -1 0
101 1 1 -3.1432201565911683e-01 1.1305577299047531e+01 1.1297437639576806e+01 3.1770379176276409e+00 0 -1 0
102 1 1 -3.1579803254283084e-01 2.6231130073819536e+01 1.1262619932077076e+01 3.4755395833053520e+00 0 -1 0
103 1 1 -3.0125968867179409e-01 4.0767821629269605e+00 1.0977348330837873e+00 1.4558245502857485e+01 0 1 0
104 1 1 -3.2394514239376571e-01 1.9332007243946599e+01 1.1636048091225097e+00 1.4316488004192948e+01 0 1 0
105 1 1 -3.1151819642113554e-01 3.9402569150609899e+00 6.3074516776373528e+00 3.3377167528396461e+00 0 0 0
106 1 1 -3.1296017992839176e-01 1.8888884599254759e+01 6.7131665154359101e+00 3.1552479653290568e+00 0 0 0
107 1 1 -3.0838228568136200e-01 1.1777940340495324e+01 6.1409937169583220e+00 1.4792144869365620e+01 0 0 0
108 1 1 -3.1346875927298223e-01 2.6994348376770059e+01 5.5344420023913710e+00 1.4790890165336561e+01 0 0 0
109 1 1 -3.1075985807021489e-01 1.1408684196035665e+01 5.8762136870738573e+00 3.3346396719715337e+00 0 0 0
110 1 1 -3.0508554426616946e-01 2.6501305210081167e+01 5.5793942180834151e+00 3.5403551905578752e+00 0 0 0
111 1 1 -3.0987818469690570e-01 4.5426390641154928e+00 6.2695469251417029e+00 1.4197059127717662e+01 0 0 0
112 1 1 -3.1434382323464327e-01 1.9463808146738227e+01 7.0021475264307069e+00 1.4721084650512568e+01 0 0 0
113 1 1 -1.6376898553355182e-02 8.4067507512494331e+00 2.5083089415823157e+00 1.8008857896928561e+01 0 0 0
114 1 1 -1.4421035216266462e-02 2.3841510791907908e+01 2.4365702248689329e+00 1.7719706508835472e+01 0 0 0
115 1 1 -7.6664874573559097e-03 7.1299204840614712e+00 9.8838042857580426e+00 6.5119054878304299e+00 0 0 0
116 1 1 -5.4275513817592831e-03 2.1969203402923050e+01 1.0108584125734634e+01 6.2866944305050882e+00 0 0 0
117 1 1 -1.2304925994519409e-02 1.2517376320426257e+00 9.8730071126018473e+00 1.7820180730807550e+01 0 0 0
118 1 1 -1.7363956973739932e-02 1.6079633535363943e+01 1.0081396568119281e+01 1.7819235214223397e+01 0 0 0
119 1 1 -1.3414186855240998e-02 1.4541394867574134e+01 2.3796619366557081e+00 6.4838499097704210e+00 0 0 0
120 1 1 -1.1785467531256755e-03 2.9446775962463779e+01 2.3420297471390823e+00 6.5222974586980316e+00 0 0 0
121 1 1 -5.9788470503660505e-03 8.7167137008138020e+00 7.9634209903603317e+00 1.8093544919927453e+01 0 0 0
122 1 1 -5.2575638441100282e-03 2.3766709056491532e+01 7.4393845735694395e+00 1.7790246808008035e+01 0 0 0
123 1 1 -7.5803016434325132e-03 7.1096916649052941e+00 4.8824495785044784e+00 6.1931911518410336e+00 0 0 0
124 1 1 -1.1339871684986173e-02 2.2186640886740406e+01 4.9048843454802364e+00 6.3662374366881878e+00 0 0 0
125 1 1 -1.5405668083625420e-02 1.2358877817830054e+00 4.7048529331082030e+00 1.7965353232278581e+01 0 0 0
126 1 1 -3.6819427847684418e-03 1.6318474113223147e+01 4.7865384221758127e+00 1.7611489129959018e+01 0 0 0
127 1 1 -1.1263068209863451e-02 1.4454646563968366e+01 7.9832295604228971e+00 6.3892981826958923e+00 0 0 0
128 1 1 -8.9377543454579461e-04 2.9599820773718353e+01 7.6316466114942694e+00 6.7049219332401844e+00 0 0 0
129 1 1 -6.4145927346770160e-02 9.7711028077086919e+00 2.9361777877924422e+00 1.7967243765954116e+01 0 0 0
130 1 1 -7.3033036152853378e-02 2.5184180848630213e+01 2.7917951637890432e+00 1.7929691802295018e+01 0 0 0
131 1 1 -5.6479689666998081e-02 5.7392795328839838e+00 9.7076151447377939e+00 6.6991333366893020e+00 0 0 0
132 1 1 -6.7524274329727116e-02 2.0572269002910588e+01 9.8276722337652807e+00 6.3560729677698236e+00 0 0 0
133 1 1 -7.1698474087790995e-02 2.6902204409887944e+00 9.6406785810927893e+00 1.7806199167501568e+01 0 0 0
134 1 1 -6.6762753572455646e-02 1.7462631043072410e+01 9.7906463154387886e+00 1.7860634930047318e+01 0 0 0
135 1 1 -6.5193081871089589e-02 1.3161493690007164e+01 2.7144153506830317e+00 6.6170779628747560e+00 0 0 0
136 1 1 -6.2626492871379447e-02 2.8068670962280663e+01 2.6661888596118155e+00 6.5948592858740493e+00 0 0 0
137 1 1 -6.7173184896611657e-02 1.0112488131305566e+01 8.2998075488735736e+00 1.8139603614951653e+01 0 0 0
138 1 1 -6.1613351785488268e-02 2.5159816078609321e+01 7.6553707059645744e+00 1.7955293437279963e+01 0 0 0
139 1 1 -7.2485098199342124e-02 5.7091753909667560e+00 4.5229198645561812e+00 6.1728320117141386e+00 0 0 0
140 1 1 -5.6913271222779525e-02 2.0827205460462189e+01 4.5606719982385613e+00 6.4786266144613025e+00 0 0 0
141 1 1 -6.6967896670853899e-02 2.6351025752362465e+00 4.4990073853916126e+00 1.7952677284471889e+01 0 0 0
142 1 1 -6.3937990675393297e-02 1.7726836621467626e+01 4.5617397505759243e+00 1.7650832799070024e+01 0 0 0
143 1 1 -6.1840314335576213e-02 1.3005334550988715e+01 8.0604110215524720e+00 6.4696121650151488e+00 0 0 0
144 1 1 -6.4986085493484225e-02 2.8230496437146869e+01 7.9311823251941957e+00 6.7350415077168737e+00 0 0 0
145 1 1 -9.7730717278367227e-02 1.0642387966766293e+01 2.1707966251474362e+00 1.8749377271037297e+01 0 0 0
146 1 1 -9.9979509911450937e-02 2.5826114776702745e+01 2.1115252521210550e+00 1.9037071019128753e+01 0 0 0
147 1 1 -9.0581605645364632e-02 5.1889602343046199e+00 1.0568703602891866e+01 7.6490052982584018e+00 0 0 0
148 1 1 -9.0341261760977634e-02 1.9944623679849126e+01 1.0477935332201184e+01 7.4043006504743989e+00 0 0 0
149 1 1 -9.2680653125466528e-02 3.4261056337545108e+00 1.0406478715408667e+01 1.8723080408463240e+01 0 0 0
150 1 1 -9.7545451294348273e-02 1.8201001009599661e+01 1.0600822338912387e+01 1.8717575635671565e+01 0 0 0
151 1 1 -9.4028709783474565e-02 1.2436918711403429e+01 2.1418092258073691e+00 7.6899731762617431e+00 0 0 0
152 1 1 -9.3285092218693591e-02 2.7337847194855456e+01 1.8854681938462776e+00 7.4860044699527180e+00 0 0 0
153 1 1 -9.6420194113602364e-02 1.0851385986435382e+01 7.6174569265600942e+00 1.9105085941533837e+01 0 0 0
154 1 1 -9.3949342880654957e-02 2.5823403655477037e+01 7.1136230817955601e+00 1.9092272324500392e+01 0 0 0
155 1 1 -9.4895936035566925e-02 4.9299070174067419e+00 5.1615198481355069e+00 7.1438017435813155e+00 0 0 0
156 1 1 -8.9230728287849545e-02 2.0062748619195336e+01 5.3386623105166109e+00 7.3782422021695933e+00 0 0 0
157 1 1 -9.4003429028319180e-02 3.4538286866023831e+00 5.2684211380902966e+00 1.8821719416068063e+01 0 0 0
158 1 1 -9.6874377598459502e-02 1.8400650203212315e+01 5.3775794626956266e+00 1.8576019220090181e+01 0 0 0
159 1 1 -9.5559439871366905e-02 1.2344092749130670e+01 7.4186476802858179e+00 7.5244491421043129e+00 0 0 0
160 1 1 -1.0146260873102933e-01 2.7410631731569268e+01 7.1990433487904859e+00 7.6523160265115617e+00 0 0 0
161 1 1 -5.4033906774379553e-02 1.0253854088714808e+01 1.1492879098725564e+00 1.9670558587587117e+01 0 0 0
162 1 1 -5.7275000745869810e-02 2.5349123518339383e+01 1.1566768241436755e+01 1.9661238101217961e+01 0 -1 0
163 1 1 -5.5521747089086963e-02 5.9464951991680461e+00 1.1404325896339326e+01 8.4980995787717859e+00 0 0 0
164 1 1 -5.1133501153664274e-02 2.0432818400725015e+01 9.5010285105234193e-01 8.2196650008987344e+00 0 1 0
165 1 1 -4.8820271409974525e-02 2.9114765586760463e+00 1.1348477253119515e+01 1.9664867765113037e+01 0 0 0
166 1 1 -5.8287309305341574e-02 1.7615362036926602e+01 1.1549050304951667e+01 1.9606998052020593e+01 0 0 0
167 1 1 -5.3301084717132081e-02 1.2961785016651421e+01 1.0670133553592056e+00 8.4236325425438334e+00 0 0 0
168 1 1 -5.4427941955717193e-02 2.7934169614895733e+01 1.1439741080173750e+01 8.3635002238416121e+00 0 -1 0
169 1 1 -5.8309057880575110e-02 1.0301287151507147e+01 6.5524766514283987e+00 1.9885976332881143e+01 0 0 0
170 1 1 -4.7611435471700367e-02 2.5146834730510662e+01 6.2353886440852682e+00 1.9939248373328979e+01 0 0 0
171 1 1 -4.5784889121469670e-02 5.4781453455093532e+00 6.1001239338760493e+00 8.0540218253088529e+00 0 0 0
172 1 1 -5.6130114769776432e-02 2.0581077454534217e+01 6.3389658329756182e+00 8.1849743189214657e+00 0 0 0
173 1 1 -5.0838989616252092e-02 2.9491360049785689e+00 6.1760933491920600e+00 1.9789263468963391e+01 0 0 0
174 1 1 -5.0063600535048651e-02 1.7810343734139689e+01 6.2931497297994259e+00 1.9449201365270149e+01 0 0 0
175 1 1 -5.3375941036504886e-02 1.3015366265497828e+01 6.4486161489590588e+00 8.2926500600360900e+00 0 0 0
176 1 1 -5.0093660081355129e-02 2.7972225634356771e+01 6.2512051835637603e+00 8.5624722782146812e+00 0 0 0
177 1 1 -9.5805024433186878e-02 8.9686891047658612e+00 1.1298601155728711e+01 1.9580899917954881e+01 0 -1 0
178 1 1 -9.4227525328050260e-02 2.3984423299359062e+01 1.1166470637117403e+01 1.9369528480732548e+01 0 -1 0
179 1 1 -9.4800383244447520e-02 7.3912160047821933e+00 1.1347498759850264e+01 8.3537022413713178e+00 0 0 0
180 1 1 -9.0789226729014447e-02 2.1846767499393657e+01 1.0622302159518089e+00 8.1752447566062880e+00 0 1 0
181 1 1 -1.0069176542121343e-01 1.4751793653727456e+00 1.0893858764968769e+00 1.9449508285783701e+01 0 1 0
182 1 1 -1.0158606669595950e-01 1.6149456592356117e+01 1.2603416719941123e+00 1.9533752507292064e+01 0 1 0
183 1 1 -1.0290329339295436e-01 1.4379182152867802e+01 1.1198350419641493e+01 8.1073171844604275e+00 0 -1 0
184 1 1 -8.9348609695800926e-02 2.9302948125754551e+01 1.1203524833993068e+01 8.2485578772834671e+00 0 -1 0
185 1 1 -8.6210524044878389e-02 8.9984177386738864e+00 6.1209697755335402e+00 1.9597741200775808e+01 0 0 0
186 1 1 -9.4676580599816582e-02 2.3845130529819272e+01 5.8896578149149921e+00 1.9630370968805366e+01 0 0 0
187 1 1 -9.5576935179328776e-02 6.8293807665156168e+00 6.4913787011331490e+00 7.9277471815866551e+00 0 0 0
188 1 1 -9.9482138289960650e-02 2.1944109122401148e+01 6.6889263072873488e+00 7.9738480821205417e+00 0 0 0
189 1 1 -8.9292604235624157e-02 1.5310519645437284e+00 6.2680491905090232e+00 1.9774114968101607e+01 0 0 0
190 1 1 -9.0380342394560151e-02 1.6445678197459237e+01 6.5856018173230124e+00 1.9298539102071537e+01 0 0 0
191 1 1 -8.8380427540920320e-02 1.4354418348977651e+01 6.1761672199235154e+00 7.9107347112139337e+00 0 0 0
192 1 1 -9.7506544816074153e-02 2.9355264347385397e+01 6.0103618107023014e+00 8.3944874102432596e+00 0 0 0
193 1 1 -8.1293392205509102e-02 7.9245540529181318e+00 1.4000726619020725e+00 1.8752160047427111e+01 0 0 0
194 1 1 -6.0434986396372445e-02 2.3179924076085740e+01 1.4145817507086473e+00 1.8464056733937170e+01 0 0 0
195 1 1 -6.5506779631784529e-02 8.0310477441925965e+00 1.0752899994906127e+01 7.2770366661604076e+00 0 0 0
196 1 1 -6.6073221274221425e-02 2.2698821025272952e+01 1.0953508464125154e+01 7.1945645495212922e+00 0 0 0
197 1 1 -7.3792382443155280e-02 1.5453432208311908e+01 1.1136882676674009e+01 1.8563278400175378e+01 0 0 0
198 1 1 -6.6468430538393311e-02 3.0479473179386378e+01 1.0881323844988117e+01 1.8628597818937074e+01 0 0 0
199 1 1 -6.0699890740170757e-02 3.0052495337368324e+01 1.3163438114304948e+00 7.3314280581643985e+00 -1 0 0
200 1 1 -6.4785159266314243e-02 1.5162264906485174e+01 1.3292820658544826e+00 7.2049525408504689e+00 0 0 0
201 1 1 -5.3105250459904912e-02 8.1485428238680129e+00 6.8313630951206123e+00 1.8735430069365535e+01 0 0 0
202 1 1 -6.9750760712824239e-02 2.3132004183835605e+01 6.4095717076585155e+00 1.8524662001260189e+01 0 0 0
203 1 1 -6.7092474125552151e-02 7.7067462419520298e+00 5.8543268794007730e+00 7.0355812744278108e+00 0 0 0
204 1 1 -6.2765836543457312e-02 2.2799730366344637e+01 5.9417941192066195e+00 7.1398190289386338e+00 0 0 0
205 1 1 -6.0665449233858151e-02 1.5698793145870546e+01 5.8291882084102067e+00 1.8343690130437373e+01 0 0 0
206 1 1 -6.9804304869115097e-02 6.9934986185459624e-01 5.7280367858206320e+00 1.8804057899277041e+01 1 0 0
207 1 1 -6.1927678276541741e-02 4.6183821381082235e-01 6.6563909247317525e+00 7.5062341874367515e+00 0 0 0
208 1 1 -6.5569020924989493e-02 1.5088794762679857e+01 6.8451610674426844e+00 6.9651083951064372e+00 0 0 0
209 1 1 -3.1457339001737517e-01 7.4263872975343084e+00 3.1708579046392593e+00 1.7002531785281150e+01 0 0 0
210 1 1 -3.0342811638073253e-01 2.3099390720057627e+01 3.3563018135167773e+00 1.6706583357059415e+01 0 0 0
211 1 1 -3.1695373983875802e-01 7.8532761899193329e+00 9.0389813427289738e+00 5.4393147389836534e+00 0 0 0
212 1 1 -3.0885422707458321e-01 2.2812620779651304e+01 9.4816223331036653e+00 5.2019297308210897e+00 0 0 0
213 1 1 -3.1388377616528612e-01 1.5196122824292658e+01 9.3691070528562612e+00 1.6760823587406094e+01 0 0 0
214 1 1 -3.0511872951830887e-01 3.0184791467239062e+01 9.0574763486710772e+00 1.6817880768778700e+01 0 0 0
215 1 1 -3.0179806660689945e-01 5.5914215264354072e-01 3.0678276060805509e+00 5.5138996560408726e+00 0 0 0
216 1 1 -3.0839885840692594e-01 1.5235138717978177e+01 3.1681649781320478e+00 5.3188934264567616e+00 0 0 0
217 1 1 -3.0838757101241310e-01 7.8547067177184609e+00 8.8562590668284713e+00 1.7181939951326804e+01 0 0 0
218 1 1 -3.0938656877772830e-01 2.2982618757739282e+01 8.1984719564394375e+00 1.6686542496823520e+01 0 0 0
219 1 1 -3.1277988105472171e-01 8.0377320693322432e+00 3.9185534347501436e+00 5.3761076676382054e+00 0 0 0
220 1 1 -3.0983164800747987e-01 2.3110316156507359e+01 4.0516547974569619e+00 5.4541568017793161e+00 0 0 0
221 1 1 -3.0704613911110656e-01 1.5566447072545454e+01 3.8211957439955664e+00 1.6641572206110752e+01 0 0 0
222 1 1 -3.2136752759803305e-01 3.0200157841529123e+01 3.9004682771939514e+00 1.6933023712626337e+01 0 0 0
223 1 1 -3.1116853050911653e-01 5.1341652479738542e-01 8.2915010268546432e+00 5.4407248131167085e+00 0 0 0
224 1 1 -3.1136584131972922e-01 1.5222796629956694e+01 8.8729236877288002e+00 5.4058185622637316e+00 0 0 0
225 1 2 4.0080518291186734e-01 6.5411669606581393e+00 1.1253434206338454e+01 3.2716015324050538e+00 0 0 0
226 1 2 3.8617734780253826e-01 2.1519725728656642e+01 1.1283658856014394e+01 3.2193317976190201e+00 0 0 0
227 1 2 3.8994890801709958e-01 8.6671458398132124e+00 1.1577322788759528e+00 1.4511891856943702e+01 0 0 0
228 1 2 3.9162149735342022e-01 2.3843199215413687e+01 1.3829646228017523e+00 1.4293240877483750e+01 0 0 0
229 1 2 3.8276899930658465e-01 1.4135002458106278e+01 1.2659137807822445e+00 3.0194475989826532e+00 0 0 0
230 1 2 3.8891643930658576e-01 2.9153745926676557e+01 9.5032041215041962e-01 3.4998085342877037e+00 0 0 0
231 1 2 3.9650127817060277e-01 1.2734305788352493e+00 1.1213574552270909e+01 1.4395539578797051e+01 0 0 0
232 1 2 3.8302219410246630e-01 1.6512569436734246e+01 1.1353913548081572e+01 1.4337998691412389e+01 0 0 0
233 1 2 3.8629431768651779e-01 6.8335146442538139e+00 5.9372549043836464e+00 3.1552444787694354e+00 0 0 0
234 1 2 3.8460632904539221e-01 2.1651882886646810e+01 6.0784675631245735e+00 2.8770131062687048e+00 0 0 0
235 1 2 3.9688273594192586e-01 8.7193446538883013e+00 6.5157817800378863e+00 1.4649117984838123e+01 0 0 0
236 1 2 3.7778740684026901e-01 2.4084823929122571e+01 6.3981651883735315e+00 1.4489364238658075e+01 0 0 0
237 1 2 3.9065429121873391e-01 1.4348301705503813e+01 6.2223735241871463e+00 3.0864231078755111e+00 0 0 0
238 1 2 3.9283727491822124e-01 2.9441630120658498e+01 5.9672686967187936e+00 3.1390815724175463e+00 0 0 0
239 1 2 3.9151581403493574e-01 1.5675607936986999e+00 5.8677920568228554e+00 1.4225916273874811e+01 0 0 0
240 1 2 3.9047244614754156e-01 1.6571512810367295e+01 5.9020863556680450e+00 1.4283161255273143e+01 0 0 0
241 1 2 3.9907989484730333e-01 7.1370744623123139e+00 3.5735023021864620e+00 -8.7397029015312166e-01 0 0 0
242 1 2 4.0000711116141408e-01 2.1707614829460883e+01 3.7513932945505690e+00 -9.5651350724017958e-01 0 0 0
243 1 2 4.0938700392700444e-01 8.9768234644808960e+00 8.4209823933061401e+00 1.0632405986478464e+01 0 0 0
244 1 2 3.9927305544644109e-01 2.3481123914950604e+01 8.5929559531852870e+00 1.0410549384040925e+01 0 0 0
245 1 2 3.9745502816966843e-01 1.4646202087853192e+01 8.3648943041853752e+00 -7.0626043862750532e-01 0 0 0
246 1 2 4.0059985461100533e-01 2.9459605057233059e+01 8.2230143585649103e+00 -3.4617221131475517e-01 0 0 0
247 1 2 4.0333307027641641e-01 8.8159241519457421e-01 4.1286959938949845e+00 1.0589531385290183e+01 0 0 0
248 1 2 3.9482661621276766e-01 1.6093193022103531e+01 4.1272172084493501e+00 1.0319721970316667e+01 0 0 0
249 1 2 4.0164004010351206e-01 6.8815157743004258e+00 9.0578180800545773e+00 -1.0149203518949750e+00 0 0 0
250 1 2 3.9886832728818145e-01 2.1839580606086056e+01 9.3566220894256382e+00 -1.0595518959417303e+00 0 0 0
251 1 2 4.0744698380330041e-01 8.4884859841785882e+00 3.3831140871866685e+00 1.0579681302122317e+01 0 0 0
252 1 2 4.0400074118786178e-01 2.3526833452842464e+01 3.2608204410083861e+00 1.0519618639635958e+01 0 0 0
253 1 2 4.0153381532261578e-01 1.4124707366108765e+01 3.2365423537874771e+00 -1.1572218791016868e+00 0 0 0
254 1 2 4.0303338448153392e-01 2.9165681438263920e+01 2.7540804264947338e+00 -9.6762527807882326e-01 0 0 0
255 1 2 4.0394132027585988e-01 1.0937627100023777e+00 9.5034797201250072e+00 1.0611541649631523e+01 0 0 0
256 1 2 4.0184109588625389e-01 1.6014168776247207e+01 9.2617476054278143e+00 1.0460889280702302e+01 0 0 0
257 1 2 3.7680767839383206e-01 2.4691181992136753e+00 3.2627283383149011e+00 1.0841210009785072e+00 0 0 0
258 1 2 3.8512449588775194e-01 1.7409583529160802e+01 3.7294662079780907e+00 1.8911854844545708e+00 0 0 0
259 1 2 3.9214633517411301e-01 1.3175716912711069e+01 9.1410268674177964e+00 1.3544064108413059e+01 0 0 0
260 1 2 4.0087000845629855e-01 2.7819289648755689e+01 8.8111989017468879e+00 1.3150103589428985e+01 0 0 0
261 1 2 3.8374230937973369e-01 1.0027919507615305e+01 9.1230422135494962e+00 1.5161979479409626e+00 0 0 0
262 1 2 3.8615711966077459e-01 2.4861689904703336e+01 9.2820353852470276e+00 1.5444259895279071e+00 0 0 0
263 1 2 3.8380591827600363e-01 5.4347926409501905e+00 3.4087958298338061e+00 1.3126736683777120e+01 0 0 0
264 1 2 4.0154874083438657e-01 2.0554362553937967e+01 3.4282316629347740e+00 1.2741501675154927e+01 0 0 0
265 1 2 3.9246888492909038e-01 2.6272967993420386e+00 8.6042570710207933e+00 1.8951077730801940e+00 0 0 0
266 1 2 3.9292030441192932e-01 1.7536532566573385e+01 9.2325549431167886e+00 1.7412120639807642e+00 0 0 0
267 1 2 3.8157463959916194e-01 1.2761516741452413e+01 3.5619448098062003e+00 1.3283395289891281e+01 0 0 0
268 1 2 3.8707599237549095e-01 2.8166720719175267e+01 3.5767216754462470e+00 1.2671075396477672e+01 0 0 0
269 1 2 3.8337719306068113e-01 1.0044790210901075e+01 3.6020273386575474e+00 1.8042037156538284e+00 0 0 0
270 1 2 3.8405849876028370e-01 2.5016919047368070e+01 3.5812477112911605e+00 2.0079506781775542e+00 0 0 0
271 1 2 3.7909872914727455e-01 5.7116768877885224e+00 8.6003681724842345e+00 1.2727921374016788e+01 0 0 0
272 1 2 3.7445562126261545e-01 2.0506367576366106e+01 9.2541587071554297e+00 1.3057399566005282e+01 0 0 0
273 1 2 3.9402528369234957e-01 1.0464804563767395e+01 3.9444068366842897e+00 1.6956647135254961e+01 0 0 0
274 1 2 3.7674724333617648e-01 2.5930670341715071e+01 3.6446093208236761e+00 1.6929504572358752e+01 0 0 0
275 1 2 4.0808739856340664e-01 4.8235075400087553e+00 8.8573599831704755e+00 5.7373037740324104e+00 0 0 0
276 1 2 3.9165326144956619e-01 1.9847458359528041e+01 8.8259081655573794e+00 5.3957215574287858e+00 0 0 0
277 1 2 3.8812507988944200e-01 3.4074537132568237e+00 8.8045267336584807e+00 1.6753381178227400e+01 0 0 0