# LAMMPS data file written by OVITO Basic 3.5.3
4032 atoms
8 atom types
0.0 100.0 xlo xhi
0.0 100.0 ylo yhi
0.0 100.0 zlo zhi

Masses

1 1.00794  # H
2 1.0
3 1.0
4 1.0
5 1.0
6 12.0107  # C
7 14.0067  # N
8 15.9994  # O

Atoms  # full

1 1 6 0.0 32.806 55.988 30.464
2 1 7 0.0 31.496 56.075 30.303
3 1 1 0.0 31.163 56.36 29.606
4 1 1 0.0 30.907 55.755 30.923
5 1 7 0.0 33.578 56.373 29.477
6 1 1 0.0 34.436 56.373 29.568
7 1 1 0.0 33.231 56.645 28.743
8 1 6 0.0 33.363 55.528 31.717
9 1 7 0.0 32.514 55.261 32.821
10 1 8 0.0 32.876 55.503 33.973
11 1 8 0.0 31.385 54.808 32.597
12 1 7 0.0 34.734 55.364 31.944
13 1 8 0.0 35.136 54.808 32.976
14 1 8 0.0 35.534 55.739 31.064
15 1 6 0.0 33.668 59.307 35.539
16 1 7 0.0 34.979 59.393 35.699
17 1 1 0.0 35.311 59.679 36.396
18 1 1 0.0 35.567 59.073 35.079
19 1 7 0.0 32.897 59.692 36.525
20 1 1 0.0 32.038 59.691 36.434
21 1 1 0.0 33.244 59.964 37.26
22 1 6 0.0 33.112 58.847 34.286
23 1 7 0.0 33.961 58.58 33.181
24 1 8 0.0 33.599 58.822 32.03
25 1 8 0.0 35.09 58.126 33.406
26 1 7 0.0 31.741 58.683 34.058
27 1 8 0.0 31.339 58.126 33.026
28 1 8 0.0 30.94 59.058 34.938
29 1 6 0.0 30.199 59.428 29.906
30 1 7 0.0 31.509 59.342 30.066
31 1 1 0.0 31.842 59.056 30.763
32 1 1 0.0 32.098 59.662 29.446
33 1 7 0.0 29.427 59.043 30.892
34 1 1 0.0 28.569 59.044 30.801
35 1 1 0.0 29.774 58.771 31.626
36 1 6 0.0 29.642 59.888 28.653
37 1 7 0.0 30.491 60.155 27.548
38 1 8 0.0 30.129 59.913 26.396
39 1 8 0.0 31.62 60.609 27.772
40 1 7 0.0 28.271 60.052 28.425
41 1 8 0.0 27.869 60.609 27.393
42 1 8 0.0 27.471 59.677 29.305
43 1 6 0.0 29.337 56.109 24.83
44 1 7 0.0 28.026 56.023 24.67
45 1 1 0.0 27.694 55.738 23.973
46 1 1 0.0 27.438 56.343 25.29
47 1 7 0.0 30.108 55.724 23.844
48 1 1 0.0 30.967 55.725 23.935
49 1 1 0.0 29.761 55.453 23.11
50 1 6 0.0 29.893 56.569 26.083
51 1 7 0.0 29.044 56.837 27.188
52 1 8 0.0 29.406 56.594 28.339
53 1 8 0.0 27.915 57.29 26.963
54 1 7 0.0 31.264 56.734 26.311
55 1 8 0.0 31.666 57.29 27.343
56 1 8 0.0 32.065 56.359 25.431
57 1 6 0.0 39.746 55.988 30.39
58 1 7 0.0 38.435 56.075 30.229
59 1 1 0.0 38.102 56.36 29.532
60 1 1 0.0 37.846 55.755 30.849
61 1 7 0.0 40.517 56.373 29.403
62 1 1 0.0 41.376 56.373 29.494
63 1 1 0.0 40.17 56.645 28.669
64 1 6 0.0 40.302 55.528 31.643
65 1 7 0.0 39.453 55.261 32.747
66 1 8 0.0 39.815 55.503 33.899
67 1 8 0.0 38.324 54.808 32.523
68 1 7 0.0 41.673 55.364 31.87
69 1 8 0.0 42.075 54.808 32.902
70 1 8 0.0 42.473 55.739 30.99
71 1 6 0.0 40.607 59.307 35.465
72 1 7 0.0 41.918 59.393 35.625
73 1 1 0.0 42.251 59.679 36.322
74 1 1 0.0 42.507 59.073 35.005
75 1 7 0.0 39.836 59.692 36.451
76 1 1 0.0 38.977 59.691 36.36
77 1 1 0.0 40.183 59.964 37.186
78 1 6 0.0 40.051 58.847 34.212
79 1 7 0.0 40.9 58.58 33.107
80 1 8 0.0 40.538 58.822 31.956
81 1 8 0.0 42.029 58.126 33.332
82 1 7 0.0 38.68 58.683 33.984
83 1 8 0.0 38.278 58.126 32.952
84 1 8 0.0 37.88 59.058 34.864
85 1 6 0.0 37.138 59.428 29.832
86 1 7 0.0 38.449 59.342 29.992
87 1 1 0.0 38.781 59.056 30.689
88 1 1 0.0 39.037 59.662 29.372
89 1 7 0.0 36.366 59.043 30.818
90 1 1 0.0 35.508 59.044 30.727
91 1 1 0.0 36.713 58.771 31.552
92 1 6 0.0 36.581 59.888 28.579
93 1 7 0.0 37.431 60.155 27.474
94 1 8 0.0 37.068 59.913 26.322
95 1 8 0.0 38.559 60.609 27.698
96 1 7 0.0 35.21 60.052 28.351
97 1 8 0.0 34.808 60.609 27.319
98 1 8 0.0 34.41 59.677 29.231
99 1 6 0.0 36.276 56.109 24.756
100 1 7 0.0 34.965 56.023 24.596
101 1 1 0.0 34.633 55.738 23.899
102 1 1 0.0 34.377 56.343 25.216
103 1 7 0.0 37.048 55.724 23.77
104 1 1 0.0 37.906 55.725 23.861
105 1 1 0.0 36.701 55.453 23.036
106 1 6 0.0 36.832 56.569 26.009
107 1 7 0.0 35.983 56.837 27.114
108 1 8 0.0 36.345 56.594 28.265
109 1 8 0.0 34.855 57.29 26.889
110 1 7 0.0 38.204 56.734 26.237
111 1 8 0.0 38.605 57.29 27.269
112 1 8 0.0 39.004 56.359 25.357
113 1 6 0.0 46.685 55.988 30.316
114 1 7 0.0 45.374 56.075 30.155
115 1 1 0.0 45.042 56.36 29.458
116 1 1 0.0 44.786 55.755 30.775
117 1 7 0.0 47.456 56.373 29.329
118 1 1 0.0 48.315 56.373 29.42
119 1 1 0.0 47.109 56.645 28.595
120 1 6 0.0 47.241 55.528 31.569
121 1 7 0.0 46.392 55.261 32.673
122 1 8 0.0 46.754 55.503 33.825
123 1 8 0.0 45.263 54.808 32.449
124 1 7 0.0 48.612 55.364 31.796
125 1 8 0.0 49.014 54.808 32.828
126 1 8 0.0 49.413 55.739 30.916
127 1 6 0.0 47.547 59.307 35.391
128 1 7 0.0 48.857 59.393 35.551
129 1 1 0.0 49.19 59.679 36.248
130 1 1 0.0 49.446 59.073 34.931
131 1 7 0.0 46.775 59.692 36.377
132 1 1 0.0 45.917 59.691 36.286
133 1 1 0.0 47.122 59.964 37.112
134 1 6 0.0 46.99 58.847 34.138
135 1 7 0.0 47.839 58.58 33.033
136 1 8 0.0 47.477 58.822 31.882
137 1 8 0.0 48.968 58.126 33.258
138 1 7 0.0 45.619 58.683 33.91
139 1 8 0.0 45.217 58.126 32.878
140 1 8 0.0 44.819 59.058 34.79
141 1 6 0.0 44.077 59.428 29.757
142 1 7 0.0 45.388 59.342 29.918
143 1 1 0.0 45.72 59.056 30.615
144 1 1 0.0 45.976 59.662 29.298
145 1 7 0.0 43.305 59.043 30.744
146 1 1 0.0 42.447 59.044 30.653
147 1 1 0.0 43.652 58.771 31.478
148 1 6 0.0 43.521 59.888 28.505
149 1 7 0.0 44.37 60.155 27.4
150 1 8 0.0 44.008 59.913 26.248
151 1 8 0.0 45.498 60.609 27.624
152 1 7 0.0 42.149 60.052 28.277
153 1 8 0.0 41.748 60.609 27.245
154 1 8 0.0 41.349 59.677 29.157
155 1 6 0.0 43.215 56.109 24.682
156 1 7 0.0 41.904 56.023 24.522
157 1 1 0.0 41.572 55.738 23.825
158 1 1 0.0 41.316 56.343 25.142
159 1 7 0.0 43.987 55.724 23.696
160 1 1 0.0 44.845 55.725 23.787
161 1 1 0.0 43.64 55.453 22.962
162 1 6 0.0 43.772 56.569 25.935
163 1 7 0.0 42.922 56.837 27.04
164 1 8 0.0 43.285 56.594 28.191
165 1 8 0.0 41.794 57.29 26.815
166 1 7 0.0 45.143 56.734 26.163
167 1 8 0.0 45.545 57.29 27.195
168 1 8 0.0 45.943 56.359 25.283
169 1 6 0.0 53.624 55.988 30.242
170 1 7 0.0 52.313 56.075 30.081
171 1 1 0.0 51.981 56.36 29.384
172 1 1 0.0 51.725 55.755 30.701
173 1 7 0.0 54.396 56.373 29.255
174 1 1 0.0 55.254 56.373 29.346
175 1 1 0.0 54.049 56.645 28.521
176 1 6 0.0 54.181 55.528 31.495
177 1 7 0.0 53.331 55.261 32.599
178 1 8 0.0 53.693 55.503 33.751
179 1 8 0.0 52.203 54.808 32.375
180 1 7 0.0 55.552 55.364 31.722
181 1 8 0.0 55.953 54.808 32.754
182 1 8 0.0 56.352 55.739 30.842
183 1 6 0.0 54.486 59.307 35.317
184 1 7 0.0 55.797 59.393 35.477
185 1 1 0.0 56.129 59.679 36.174
186 1 1 0.0 56.385 59.073 34.857
187 1 7 0.0 53.714 59.692 36.303
188 1 1 0.0 52.856 59.691 36.212
189 1 1 0.0 54.061 59.964 37.037
190 1 6 0.0 53.929 58.847 34.064
191 1 7 0.0 54.779 58.58 32.959
192 1 8 0.0 54.416 58.822 31.808
193 1 8 0.0 55.907 58.126 33.184
194 1 7 0.0 52.558 58.683 33.836
195 1 8 0.0 52.156 58.126 32.804
196 1 8 0.0 51.758 59.058 34.716
197 1 6 0.0 51.016 59.428 29.683
198 1 7 0.0 52.327 59.342 29.844
199 1 1 0.0 52.659 59.056 30.541
200 1 1 0.0 52.915 59.662 29.224
201 1 7 0.0 50.245 59.043 30.67
202 1 1 0.0 49.386 59.044 30.579
203 1 1 0.0 50.592 58.771 31.404
204 1 6 0.0 50.46 59.888 28.431
205 1 7 0.0 51.309 60.155 27.326
206 1 8 0.0 50.947 59.913 26.174
207 1 8 0.0 52.438 60.609 27.55
208 1 7 0.0 49.089 60.052 28.203
209 1 8 0.0 48.687 60.609 27.171
210 1 8 0.0 48.288 59.677 29.083
211 1 6 0.0 50.154 56.109 24.608
212 1 7 0.0 48.844 56.023 24.448
213 1 1 0.0 48.511 55.738 23.751
214 1 1 0.0 48.255 56.343 25.068
215 1 7 0.0 50.926 55.724 23.622
216 1 1 0.0 51.784 55.725 23.713
217 1 1 0.0 50.579 55.453 22.888
218 1 6 0.0 50.711 56.569 25.861
219 1 7 0.0 49.862 56.837 26.966
220 1 8 0.0 50.224 56.594 28.117
221 1 8 0.0 48.733 57.29 26.741
222 1 7 0.0 52.082 56.734 26.089
223 1 8 0.0 52.484 57.29 27.121
224 1 8 0.0 52.882 56.359 25.209
225 1 6 0.0 60.563 55.988 30.168
226 1 7 0.0 59.252 56.075 30.007
227 1 1 0.0 58.92 56.36 29.31
228 1 1 0.0 58.664 55.755 30.627
229 1 7 0.0 61.335 56.373 29.181
230 1 1 0.0 62.193 56.373 29.272
231 1 1 0.0 60.988 56.645 28.447
232 1 6 0.0 61.12 55.528 31.421
233 1 7 0.0 60.27 55.261 32.525
234 1 8 0.0 60.633 55.503 33.677
235 1 8 0.0 59.142 54.808 32.301
236 1 7 0.0 62.491 55.364 31.648
237 1 8 0.0 62.893 54.808 32.68
238 1 8 0.0 63.291 55.739 30.768
239 1 6 0.0 61.425 59.307 35.243
240 1 7 0.0 62.736 59.393 35.403
241 1 1 0.0 63.068 59.679 36.1
242 1 1 0.0 63.324 59.073 34.783
243 1 7 0.0 60.653 59.692 36.229
244 1 1 0.0 59.795 59.691 36.138
245 1 1 0.0 61.0 59.964 36.963
246 1 6 0.0 60.869 58.847 33.99
247 1 7 0.0 61.718 58.58 32.885
248 1 8 0.0 61.356 58.822 31.734
249 1 8 0.0 62.846 58.126 33.11
250 1 7 0.0 59.497 58.683 33.762
251 1 8 0.0 59.096 58.126 32.73
252 1 8 0.0 58.697 59.058 34.642
253 1 6 0.0 57.955 59.428 29.609
254 1 7 0.0 59.266 59.342 29.77
255 1 1 0.0 59.599 59.056 30.467
256 1 1 0.0 59.855 59.662 29.15
257 1 7 0.0 57.184 59.043 30.596
258 1 1 0.0 56.325 59.044 30.505
259 1 1 0.0 57.531 58.771 31.33
260 1 6 0.0 57.399 59.888 28.357
261 1 7 0.0 58.248 60.155 27.252
262 1 8 0.0 57.886 59.913 26.1
263 1 8 0.0 59.377 60.609 27.476
264 1 7 0.0 56.028 60.052 28.129
265 1 8 0.0 55.626 60.609 27.097
266 1 8 0.0 55.228 59.677 29.009
267 1 6 0.0 57.094 56.109 24.534
268 1 7 0.0 55.783 56.023 24.374
269 1 1 0.0 55.45 55.738 23.677
270 1 1 0.0 55.194 56.343 24.994
271 1 7 0.0 57.865 55.724 23.548
272 1 1 0.0 58.724 55.725 23.639
273 1 1 0.0 57.518 55.453 22.814
274 1 6 0.0 57.65 56.569 25.787
275 1 7 0.0 56.801 56.837 26.892
276 1 8 0.0 57.163 56.594 28.043
277 1 8 0.0 55.672 57.29 26.667
278 1 7 0.0 59.021 56.734 26.015
279 1 8 0.0 59.423 57.29 27.047
280 1 8 0.0 59.821 56.359 25.135
281 1 6 0.0 67.502 55.988 30.094
282 1 7 0.0 66.192 56.075 29.933
283 1 1 0.0 65.859 56.36 29.236
284 1 1 0.0 65.603 55.755 30.553
285 1 7 0.0 68.274 56.373 29.107
286 1 1 0.0 69.132 56.373 29.198
287 1 1 0.0 67.927 56.645 28.373
288 1 6 0.0 68.059 55.528 31.347
289 1 7 0.0 67.21 55.261 32.451
290 1 8 0.0 67.572 55.503 33.603
291 1 8 0.0 66.081 54.808 32.227
292 1 7 0.0 69.43 55.364 31.574
293 1 8 0.0 69.832 54.808 32.606
294 1 8 0.0 70.23 55.739 30.694
295 1 6 0.0 68.364 59.307 35.169
296 1 7 0.0 69.675 59.393 35.329
297 1 1 0.0 70.007 59.679 36.026
298 1 1 0.0 70.264 59.073 34.709
299 1 7 0.0 67.593 59.692 36.155
300 1 1 0.0 66.734 59.691 36.064
301 1 1 0.0 67.94 59.964 36.889
302 1 6 0.0 67.808 58.847 33.916
303 1 7 0.0 68.657 58.58 32.811
304 1 8 0.0 68.295 58.822 31.66
305 1 8 0.0 69.786 58.126 33.036
306 1 7 0.0 66.437 58.683 33.688
307 1 8 0.0 66.035 58.126 32.656
308 1 8 0.0 65.636 59.058 34.568
309 1 6 0.0 64.895 59.428 29.535
310 1 7 0.0 66.205 59.342 29.696
311 1 1 0.0 66.538 59.056 30.393
312 1 1 0.0 66.794 59.662 29.076
313 1 7 0.0 64.123 59.043 30.522
314 1 1 0.0 63.265 59.044 30.431
315 1 1 0.0 64.47 58.771 31.256
316 1 6 0.0 64.338 59.888 28.283
317 1 7 0.0 65.187 60.155 27.178
318 1 8 0.0 64.825 59.913 26.026
319 1 8 0.0 66.316 60.609 27.402
320 1 7 0.0 62.967 60.052 28.055
321 1 8 0.0 62.565 60.609 27.023
322 1 8 0.0 62.167 59.677 28.935
323 1 6 0.0 64.033 56.109 24.46
324 1 7 0.0 62.722 56.023 24.3
325 1 1 0.0 62.39 55.738 23.603
326 1 1 0.0 62.134 56.343 24.92
327 1 7 0.0 64.804 55.724 23.474
328 1 1 0.0 65.663 55.725 23.565
329 1 1 0.0 64.457 55.453 22.74
330 1 6 0.0 64.589 56.569 25.713
331 1 7 0.0 63.74 56.837 26.818
332 1 8 0.0 64.102 56.594 27.969
333 1 8 0.0 62.611 57.29 26.593
334 1 7 0.0 65.961 56.734 25.941
335 1 8 0.0 66.362 57.29 26.973
336 1 8 0.0 66.761 56.359 25.061
337 1 6 0.0 32.806 62.626 30.464
338 1 7 0.0 31.496 62.712 30.303
339 1 1 0.0 31.163 62.998 29.606
340 1 1 0.0 30.907 62.392 30.923
341 1 7 0.0 33.578 63.011 29.477
342 1 1 0.0 34.436 63.01 29.568
343 1 1 0.0 33.231 63.282 28.743
344 1 6 0.0 33.363 62.166 31.717
345 1 7 0.0 32.514 61.898 32.821
346 1 8 0.0 32.876 62.141 33.973
347 1 8 0.0 31.385 61.445 32.597
348 1 7 0.0 34.734 62.001 31.944
349 1 8 0.0 35.136 61.445 32.976
350 1 8 0.0 35.534 62.376 31.064
351 1 6 0.0 33.668 65.945 35.539
352 1 7 0.0 34.979 66.031 35.699
353 1 1 0.0 35.311 66.316 36.396
354 1 1 0.0 35.567 65.711 35.079
355 1 7 0.0 32.897 66.329 36.525
356 1 1 0.0 32.038 66.329 36.434
357 1 1 0.0 33.244 66.601 37.26
358 1 6 0.0 33.112 65.485 34.286
359 1 7 0.0 33.961 65.217 33.181
360 1 8 0.0 33.599 65.459 32.03
361 1 8 0.0 35.09 64.764 33.406
362 1 7 0.0 31.741 65.32 34.058
363 1 8 0.0 31.339 64.764 33.026
364 1 8 0.0 30.94 65.695 34.938
365 1 6 0.0 30.199 66.065 29.906
366 1 7 0.0 31.509 65.979 30.066
367 1 1 0.0 31.842 65.694 30.763
368 1 1 0.0 32.098 66.299 29.446
369 1 7 0.0 29.427 65.68 30.892
370 1 1 0.0 28.569 65.681 30.801
371 1 1 0.0 29.774 65.409 31.626
372 1 6 0.0 29.642 66.525 28.653
373 1 7 0.0 30.491 66.793 27.548
374 1 8 0.0 30.129 66.551 26.396
375 1 8 0.0 31.62 67.246 27.772
376 1 7 0.0 28.271 66.69 28.425
377 1 8 0.0 27.869 67.246 27.393
378 1 8 0.0 27.471 66.315 29.305
379 1 6 0.0 29.337 62.747 24.83
380 1 7 0.0 28.026 62.66 24.67
381 1 1 0.0 27.694 62.375 23.973
382 1 1 0.0 27.438 62.98 25.29
383 1 7 0.0 30.108 62.362 23.844
384 1 1 0.0 30.967 62.362 23.935
385 1 1 0.0 29.761 62.09 23.11
386 1 6 0.0 29.893 63.207 26.083
387 1 7 0.0 29.044 63.474 27.188
388 1 8 0.0 29.406 63.232 28.339
389 1 8 0.0 27.915 63.927 26.963
390 1 7 0.0 31.264 63.371 26.311
391 1 8 0.0 31.666 63.927 27.343
392 1 8 0.0 32.065 62.996 25.431
393 1 6 0.0 39.746 62.626 30.39
394 1 7 0.0 38.435 62.712 30.229
395 1 1 0.0 38.102 62.998 29.532
396 1 1 0.0 37.846 62.392 30.849
397 1 7 0.0 40.517 63.011 29.403
398 1 1 0.0 41.376 63.01 29.494
399 1 1 0.0 40.17 63.282 28.669
400 1 6 0.0 40.302 62.166 31.643
401 1 7 0.0 39.453 61.898 32.747
402 1 8 0.0 39.815 62.141 33.899
403 1 8 0.0 38.324 61.445 32.523
404 1 7 0.0 41.673 62.001 31.87
405 1 8 0.0 42.075 61.445 32.902
406 1 8 0.0 42.473 62.376 30.99
407 1 6 0.0 40.607 65.945 35.465
408 1 7 0.0 41.918 66.031 35.625
409 1 1 0.0 42.251 66.316 36.322
410 1 1 0.0 42.507 65.711 35.005
411 1 7 0.0 39.836 66.329 36.451
412 1 1 0.0 38.977 66.329 36.36
413 1 1 0.0 40.183 66.601 37.186
414 1 6 0.0 40.051 65.485 34.212
415 1 7 0.0 40.9 65.217 33.107
416 1 8 0.0 40.538 65.459 31.956
417 1 8 0.0 42.029 64.764 33.332
418 1 7 0.0 38.68 65.32 33.984
419 1 8 0.0 38.278 64.764 32.952
420 1 8 0.0 37.88 65.695 34.864
421 1 6 0.0 37.138 66.065 29.832
422 1 7 0.0 38.449 65.979 29.992
423 1 1 0.0 38.781 65.694 30.689
424 1 1 0.0 39.037 66.299 29.372
425 1 7 0.0 36.366 65.68 30.818
426 1 1 0.0 35.508 65.681 30.727
427 1 1 0.0 36.713 65.409 31.552
428 1 6 0.0 36.581 66.525 28.579
429 1 7 0.0 37.431 66.793 27.474
430 1 8 0.0 37.068 66.551 26.322
431 1 8 0.0 38.559 67.246 27.698
432 1 7 0.0 35.21 66.69 28.351
433 1 8 0.0 34.808 67.246 27.319
434 1 8 0.0 34.41 66.315 29.231
435 1 6 0.0 36.276 62.747 24.756
436 1 7 0.0 34.965 62.66 24.596
437 1 1 0.0 34.633 62.375 23.899
438 1 1 0.0 34.377 62.98 25.216
439 1 7 0.0 37.048 62.362 23.77
440 1 1 0.0 37.906 62.362 23.861
441 1 1 0.0 36.701 62.09 23.036
442 1 6 0.0 36.832 63.207 26.009
443 1 7 0.0 35.983 63.474 27.114
444 1 8 0.0 36.345 63.232 28.265
445 1 8 0.0 34.855 63.927 26.889
446 1 7 0.0 38.204 63.371 26.237
447 1 8 0.0 38.605 63.927 27.269
448 1 8 0.0 39.004 62.996 25.357
449 1 6 0.0 46.685 62.626 30.316
450 1 7 0.0 45.374 62.712 30.155
451 1 1 0.0 45.042 62.998 29.458
452 1 1 0.0 44.786 62.392 30.775
453 1 7 0.0 47.456 63.011 29.329
454 1 1 0.0 48.315 63.01 29.42
455 1 1 0.0 47.109 63.282 28.595
456 1 6 0.0 47.241 62.166 31.569
457 1 7 0.0 46.392 61.898 32.673
458 1 8 0.0 46.754 62.141 33.825
459 1 8 0.0 45.263 61.445 32.449
460 1 7 0.0 48.612 62.001 31.796
461 1 8 0.0 49.014 61.445 32.828
462 1 8 0.0 49.413 62.376 30.916
463 1 6 0.0 47.547 65.945 35.391
464 1 7 0.0 48.857 66.031 35.551
465 1 1 0.0 49.19 66.316 36.248
466 1 1 0.0 49.446 65.711 34.931
467 1 7 0.0 46.775 66.329 36.377
468 1 1 0.0 45.917 66.329 36.286
469 1 1 0.0 47.122 66.601 37.112
470 1 6 0.0 46.99 65.485 34.138
471 1 7 0.0 47.839 65.217 33.033
472 1 8 0.0 47.477 65.459 31.882
473 1 8 0.0 48.968 64.764 33.258
474 1 7 0.0 45.619 65.32 33.91
475 1 8 0.0 45.217 64.764 32.878
476 1 8 0.0 44.819 65.695 34.79
477 1 6 0.0 44.077 66.065 29.757
478 1 7 0.0 45.388 65.979 29.918
479 1 1 0.0 45.72 65.694 30.615
480 1 1 0.0 45.976 66.299 29.298
481 1 7 0.0 43.305 65.68 30.744
482 1 1 0.0 42.447 65.681 30.653
483 1 1 0.0 43.652 65.409 31.478
484 1 6 0.0 43.521 66.525 28.505
485 1 7 0.0 44.37 66.793 27.4
486 1 8 0.0 44.008 66.551 26.248
487 1 8 0.0 45.498 67.246 27.624
488 1 7 0.0 42.149 66.69 28.277
489 1 8 0.0 41.748 67.246 27.245
490 1 8 0.0 41.349 66.315 29.157
491 1 6 0.0 43.215 62.747 24.682
492 1 7 0.0 41.904 62.66 24.522
493 1 1 0.0 41.572 62.375 23.825
494 1 1 0.0 41.316 62.98 25.142
495 1 7 0.0 43.987 62.362 23.696
496 1 1 0.0 44.845 62.362 23.787
497 1 1 0.0 43.64 62.09 22.962
498 1 6 0.0 43.772 63.207 25.935
499 1 7 0.0 42.922 63.474 27.04
500 1 8 0.0 43.285 63.232 28.191
501 1 8 0.0 41.794 63.927 26.815
502 1 7 0.0 45.143 63.371 26.163
503 1 8 0.0 45.545 63.927 27.195
504 1 8 0.0 45.943 62.996 25.283
505 1 6 0.0 53.624 62.626 30.242
506 1 7 0.0 52.313 62.712 30.081
507 1 1 0.0 51.981 62.998 29.384
508 1 1 0.0 51.725 62.392 30.701
509 1 7 0.0 54.396 63.011 29.255
510 1 1 0.0 55.254 63.01 29.346
511 1 1 0.0 54.049 63.282 28.521
512 1 6 0.0 54.181 62.166 31.495
513 1 7 0.0 53.331 61.898 32.599
514 1 8 0.0 53.693 62.141 33.751
515 1 8 0.0 52.203 61.445 32.375
516 1 7 0.0 55.552 62.001 31.722
517 1 8 0.0 55.953 61.445 32.754
518 1 8 0.0 56.352 62.376 30.842
519 1 6 0.0 54.486 65.945 35.317
520 1 7 0.0 55.797 66.031 35.477
521 1 1 0.0 56.129 66.316 36.174
522 1 1 0.0 56.385 65.711 34.857
523 1 7 0.0 53.714 66.329 36.303
524 1 1 0.0 52.856 66.329 36.212
525 1 1 0.0 54.061 66.601 37.037
526 1 6 0.0 53.929 65.485 34.064
527 1 7 0.0 54.779 65.217 32.959
528 1 8 0.0 54.416 65.459 31.808
529 1 8 0.0 55.907 64.764 33.184
530 1 7 0.0 52.558 65.32 33.836
531 1 8 0.0 52.156 64.764 32.804
532 1 8 0.0 51.758 65.695 34.716
533 1 6 0.0 51.016 66.065 29.683
534 1 7 0.0 52.327 65.979 29.844
535 1 1 0.0 52.659 65.694 30.541
536 1 1 0.0 52.915 66.299 29.224
537 1 7 0.0 50.245 65.68 30.67
538 1 1 0.0 49.386 65.681 30.579
539 1 1 0.0 50.592 65.409 31.404
540 1 6 0.0 50.46 66.525 28.431
541 1 7 0.0 51.309 66.793 27.326
542 1 8 0.0 50.947 66.551 26.174
543 1 8 0.0 52.438 67.246 27.55
544 1 7 0.0 49.089 66.69 28.203
545 1 8 0.0 48.687 67.246 27.171
546 1 8 0.0 48.288 66.315 29.083
547 1 6 0.0 50.154 62.747 24.608
548 1 7 0.0 48.844 62.66 24.448
549 1 1 0.0 48.511 62.375 23.751
550 1 1 0.0 48.255 62.98 25.068
551 1 7 0.0 50.926 62.362 23.622
552 1 1 0.0 51.784 62.362 23.713
553 1 1 0.0 50.579 62.09 22.888
554 1 6 0.0 50.711 63.207 25.861
555 1 7 0.0 49.862 63.474 26.966
556 1 8 0.0 50.224 63.232 28.117
557 1 8 0.0 48.733 63.927 26.741
558 1 7 0.0 52.082 63.371 26.089
559 1 8 0.0 52.484 63.927 27.121
560 1 8 0.0 52.882 62.996 25.209
561 1 6 0.0 60.563 62.626 30.168
562 1 7 0.0 59.252 62.712 30.007
563 1 1 0.0 58.92 62.998 29.31
564 1 1 0.0 58.664 62.392 30.627
565 1 7 0.0 61.335 63.011 29.181
566 1 1 0.0 62.193 63.01 29.272
567 1 1 0.0 60.988 63.282 28.447
568 1 6 0.0 61.12 62.166 31.421
569 1 7 0.0 60.27 61.898 32.525
570 1 8 0.0 60.633 62.141 33.677
571 1 8 0.0 59.142 61.445 32.301
572 1 7 0.0 62.491 62.001 31.648
573 1 8 0.0 62.893 61.445 32.68
574 1 8 0.0 63.291 62.376 30.768
575 1 6 0.0 61.425 65.945 35.243
576 1 7 0.0 62.736 66.031 35.403
577 1 1 0.0 63.068 66.316 36.1
578 1 1 0.0 63.324 65.711 34.783
579 1 7 0.0 60.653 66.329 36.229
580 1 1 0.0 59.795 66.329 36.138
581 1 1 0.0 61.0 66.601 36.963
582 1 6 0.0 60.869 65.485 33.99
583 1 7 0.0 61.718 65.217 32.885
584 1 8 0.0 61.356 65.459 31.734
585 1 8 0.0 62.846 64.764 33.11
586 1 7 0.0 59.497 65.32 33.762
587 1 8 0.0 59.096 64.764 32.73
588 1 8 0.0 58.697 65.695 34.642
589 1 6 0.0 57.955 66.065 29.609
590 1 7 0.0 59.266 65.979 29.77
591 1 1 0.0 59.599 65.694 30.467
592 1 1 0.0 59.855 66.299 29.15
593 1 7 0.0 57.184 65.68 30.596
594 1 1 0.0 56.325 65.681 30.505
595 1 1 0.0 57.531 65.409 31.33
596 1 6 0.0 57.399 66.525 28.357
597 1 7 0.0 58.248 66.793 27.252
598 1 8 0.0 57.886 66.551 26.1
599 1 8 0.0 59.377 67.246 27.476
600 1 7 0.0 56.028 66.69 28.129
601 1 8 0.0 55.626 67.246 27.097
602 1 8 0.0 55.228 66.315 29.009
603 1 6 0.0 57.094 62.747 24.534
604 1 7 0.0 55.783 62.66 24.374
605 1 1 0.0 55.45 62.375 23.677
606 1 1 0.0 55.194 62.98 24.994
607 1 7 0.0 57.865 62.362 23.548
608 1 1 0.0 58.724 62.362 23.639
609 1 1 0.0 57.518 62.09 22.814
610 1 6 0.0 57.65 63.207 25.787
611 1 7 0.0 56.801 63.474 26.892
612 1 8 0.0 57.163 63.232 28.043
613 1 8 0.0 55.672 63.927 26.667
614 1 7 0.0 59.021 63.371 26.015
615 1 8 0.0 59.423 63.927 27.047
616 1 8 0.0 59.821 62.996 25.135
617 1 6 0.0 67.502 62.626 30.094
618 1 7 0.0 66.192 62.712 29.933
619 1 1 0.0 65.859 62.998 29.236
620 1 1 0.0 65.603 62.392 30.553
621 1 7 0.0 68.274 63.011 29.107
622 1 1 0.0 69.132 63.01 29.198
623 1 1 0.0 67.927 63.282 28.373
624 1 6 0.0 68.059 62.166 31.347
625 1 7 0.0 67.21 61.898 32.451
626 1 8 0.0 67.572 62.141 33.603
627 1 8 0.0 66.081 61.445 32.227
628 1 7 0.0 69.43 62.001 31.574
629 1 8 0.0 69.832 61.445 32.606
630 1 8 0.0 70.23 62.376 30.694
631 1 6 0.0 68.364 65.945 35.169
632 1 7 0.0 69.675 66.031 35.329
633 1 1 0.0 70.007 66.316 36.026
634 1 1 0.0 70.264 65.711 34.709
635 1 7 0.0 67.593 66.329 36.155
636 1 1 0.0 66.734 66.329 36.064
637 1 1 0.0 67.94 66.601 36.889
638 1 6 0.0 67.808 65.485 33.916
639 1 7 0.0 68.657 65.217 32.811
640 1 8 0.0 68.295 65.459 31.66
641 1 8 0.0 69.786 64.764 33.036
642 1 7 0.0 66.437 65.32 33.688
643 1 8 0.0 66.035 64.764 32.656
644 1 8 0.0 65.636 65.695 34.568
645 1 6 0.0 64.895 66.065 29.535
646 1 7 0.0 66.205 65.979 29.696
647 1 1 0.0 66.538 65.694 30.393
648 1 1 0.0 66.794 66.299 29.076
649 1 7 0.0 64.123 65.68 30.522
650 1 1 0.0 63.265 65.681 30.431
651 1 1 0.0 64.47 65.409 31.256
652 1 6 0.0 64.338 66.525 28.283
653 1 7 0.0 65.187 66.793 27.178
654 1 8 0.0 64.825 66.551 26.026
655 1 8 0.0 66.316 67.246 27.402
656 1 7 0.0 62.967 66.69 28.055
657 1 8 0.0 62.565 67.246 27.023
658 1 8 0.0 62.167 66.315 28.935
659 1 6 0.0 64.033 62.747 24.46
660 1 7 0.0 62.722 62.66 24.3
661 1 1 0.0 62.39 62.375 23.603
662 1 1 0.0 62.134 62.98 24.92
663 1 7 0.0 64.804 62.362 23.474
664 1 1 0.0 65.663 62.362 23.565
665 1 1 0.0 64.457 62.09 22.74
666 1 6 0.0 64.589 63.207 25.713
667 1 7 0.0 63.74 63.474 26.818
668 1 8 0.0 64.102 63.232 27.969
669 1 8 0.0 62.611 63.927 26.593
670 1 7 0.0 65.961 63.371 25.941
671 1 8 0.0 66.362 63.927 26.973
672 1 8 0.0 66.761 62.996 25.061
673 1 6 0.0 32.806 69.263 30.464
674 1 7 0.0 31.496 69.35 30.303
675 1 1 0.0 31.163 69.635 29.606
676 1 1 0.0 30.907 69.03 30.923
677 1 7 0.0 33.578 69.648 29.477
678 1 1 0.0 34.436 69.648 29.568
679 1 1 0.0 33.231 69.92 28.743
680 1 6 0.0 33.363 68.803 31.717
681 1 7 0.0 32.514 68.536 32.821
682 1 8 0.0 32.876 68.778 33.973
683 1 8 0.0 31.385 68.082 32.597
684 1 7 0.0 34.734 68.639 31.944
685 1 8 0.0 35.136 68.082 32.976
686 1 8 0.0 35.534 69.014 31.064
687 1 6 0.0 33.668 72.582 35.539
688 1 7 0.0 34.979 72.668 35.699
689 1 1 0.0 35.311 72.954 36.396
690 1 1 0.0 35.567 72.348 35.079
691 1 7 0.0 32.897 72.967 36.525
692 1 1 0.0 32.038 72.966 36.434
693 1 1 0.0 33.244 73.238 37.26
694 1 6 0.0 33.112 72.122 34.286
695 1 7 0.0 33.961 71.854 33.181
696 1 8 0.0 33.599 72.097 32.03
697 1 8 0.0 35.09 71.401 33.406
698 1 7 0.0 31.741 71.957 34.058
699 1 8 0.0 31.339 71.401 33.026
700 1 8 0.0 30.94 72.332 34.938
701 1 6 0.0 30.199 72.703 29.906
702 1 7 0.0 31.509 72.616 30.066
703 1 1 0.0 31.842 72.331 30.763
704 1 1 0.0 32.098 72.936 29.446
705 1 7 0.0 29.427 72.318 30.892
706 1 1 0.0 28.569 72.318 30.801
707 1 1 0.0 29.774 72.046 31.626
708 1 6 0.0 29.642 73.163 28.653
709 1 7 0.0 30.491 73.43 27.548
710 1 8 0.0 30.129 73.188 26.396
711 1 8 0.0 31.62 73.884 27.772
712 1 7 0.0 28.271 73.327 28.425
713 1 8 0.0 27.869 73.884 27.393
714 1 8 0.0 27.471 72.952 29.305
715 1 6 0.0 29.337 69.384 24.83
716 1 7 0.0 28.026 69.298 24.67
717 1 1 0.0 27.694 69.012 23.973
718 1 1 0.0 27.438 69.618 25.29
719 1 7 0.0 30.108 68.999 23.844
720 1 1 0.0 30.967 69.0 23.935
721 1 1 0.0 29.761 68.728 23.11
722 1 6 0.0 29.893 69.844 26.083
723 1 7 0.0 29.044 70.111 27.188
724 1 8 0.0 29.406 69.869 28.339
725 1 8 0.0 27.915 70.565 26.963
726 1 7 0.0 31.264 70.009 26.311
727 1 8 0.0 31.666 70.565 27.343
728 1 8 0.0 32.065 69.634 25.431
729 1 6 0.0 39.746 69.263 30.39
730 1 7 0.0 38.435 69.35 30.229
731 1 1 0.0 38.102 69.635 29.532
732 1 1 0.0 37.846 69.03 30.849
733 1 7 0.0 40.517 69.648 29.403
734 1 1 0.0 41.376 69.648 29.494
735 1 1 0.0 40.17 69.92 28.669
736 1 6 0.0 40.302 68.803 31.643
737 1 7 0.0 39.453 68.536 32.747
738 1 8 0.0 39.815 68.778 33.899
739 1 8 0.0 38.324 68.082 32.523
740 1 7 0.0 41.673 68.639 31.87
741 1 8 0.0 42.075 68.082 32.902
742 1 8 0.0 42.473 69.014 30.99
743 1 6 0.0 40.607 72.582 35.465
744 1 7 0.0 41.918 72.668 35.625
745 1 1 0.0 42.251 72.954 36.322
746 1 1 0.0 42.507 72.348 35.005
747 1 7 0.0 39.836 72.967 36.451
748 1 1 0.0 38.977 72.966 36.36
749 1 1 0.0 40.183 73.238 37.186
750 1 6 0.0 40.051 72.122 34.212
751 1 7 0.0 40.9 71.854 33.107
752 1 8 0.0 40.538 72.097 31.956
753 1 8 0.0 42.029 71.401 33.332
754 1 7 0.0 38.68 71.957 33.984
755 1 8 0.0 38.278 71.401 32.952
756 1 8 0.0 37.88 72.332 34.864
757 1 6 0.0 37.138 72.703 29.832
758 1 7 0.0 38.449 72.616 29.992
759 1 1 0.0 38.781 72.331 30.689
760 1 1 0.0 39.037 72.936 29.372
761 1 7 0.0 36.366 72.318 30.818
762 1 1 0.0 35.508 72.318 30.727
763 1 1 0.0 36.713 72.046 31.552
764 1 6 0.0 36.581 73.163 28.579
765 1 7 0.0 37.431 73.43 27.474
766 1 8 0.0 37.068 73.188 26.322
767 1 8 0.0 38.559 73.884 27.698
768 1 7 0.0 35.21 73.327 28.351
769 1 8 0.0 34.808 73.884 27.319
770 1 8 0.0 34.41 72.952 29.231
771 1 6 0.0 36.276 69.384 24.756
772 1 7 0.0 34.965 69.298 24.596
773 1 1 0.0 34.633 69.012 23.899
774 1 1 0.0 34.377 69.618 25.216
775 1 7 0.0 37.048 68.999 23.77
776 1 1 0.0 37.906 69.0 23.861
777 1 1 0.0 36.701 68.728 23.036
778 1 6 0.0 36.832 69.844 26.009
779 1 7 0.0 35.983 70.111 27.114
780 1 8 0.0 36.345 69.869 28.265
781 1 8 0.0 34.855 70.565 26.889
782 1 7 0.0 38.204 70.009 26.237
783 1 8 0.0 38.605 70.565 27.269
784 1 8 0.0 39.004 69.634 25.357
785 1 6 0.0 46.685 69.263 30.316
786 1 7 0.0 45.374 69.35 30.155
787 1 1 0.0 45.042 69.635 29.458
788 1 1 0.0 44.786 69.03 30.775
789 1 7 0.0 47.456 69.648 29.329
790 1 1 0.0 48.315 69.648 29.42
791 1 1 0.0 47.109 69.92 28.595
792 1 6 0.0 47.241 68.803 31.569
793 1 7 0.0 46.392 68.536 32.673
794 1 8 0.0 46.754 68.778 33.825
795 1 8 0.0 45.263 68.082 32.449
796 1 7 0.0 48.612 68.639 31.796
797 1 8 0.0 49.014 68.082 32.828
798 1 8 0.0 49.413 69.014 30.916
799 1 6 0.0 47.547 72.582 35.391
800 1 7 0.0 48.857 72.668 35.551
801 1 1 0.0 49.19 72.954 36.248
802 1 1 0.0 49.446 72.348 34.931
803 1 7 0.0 46.775 72.967 36.377
804 1 1 0.0 45.917 72.966 36.286
805 1 1 0.0 47.122 73.238 37.112
806 1 6 0.0 46.99 72.122 34.138
807 1 7 0.0 47.839 71.854 33.033
808 1 8 0.0 47.477 72.097 31.882
809 1 8 0.0 48.968 71.401 33.258
810 1 7 0.0 45.619 71.957 33.91
811 1 8 0.0 45.217 71.401 32.878
812 1 8 0.0 44.819 72.332 34.79
813 1 6 0.0 44.077 72.703 29.757
814 1 7 0.0 45.388 72.616 29.918
815 1 1 0.0 45.72 72.331 30.615
816 1 1 0.0 45.976 72.936 29.298
817 1 7 0.0 43.305 72.318 30.744
818 1 1 0.0 42.447 72.318 30.653
819 1 1 0.0 43.652 72.046 31.478
820 1 6 0.0 43.521 73.163 28.505
821 1 7 0.0 44.37 73.43 27.4
822 1 8 0.0 44.008 73.188 26.248
823 1 8 0.0 45.498 73.884 27.624
824 1 7 0.0 42.149 73.327 28.277
825 1 8 0.0 41.748 73.884 27.245
826 1 8 0.0 41.349 72.952 29.157
827 1 6 0.0 43.215 69.384 24.682
828 1 7 0.0 41.904 69.298 24.522
829 1 1 0.0 41.572 69.012 23.825
830 1 1 0.0 41.316 69.618 25.142
831 1 7 0.0 43.987 68.999 23.696
832 1 1 0.0 44.845 69.0 23.787
833 1 1 0.0 43.64 68.728 22.962
834 1 6 0.0 43.772 69.844 25.935
835 1 7 0.0 42.922 70.111 27.04
836 1 8 0.0 43.285 69.869 28.191
837 1 8 0.0 41.794 70.565 26.815
838 1 7 0.0 45.143 70.009 26.163
839 1 8 0.0 45.545 70.565 27.195
840 1 8 0.0 45.943 69.634 25.283
841 1 6 0.0 53.624 69.263 30.242
842 1 7 0.0 52.313 69.35 30.081
843 1 1 0.0 51.981 69.635 29.384
844 1 1 0.0 51.725 69.03 30.701
845 1 7 0.0 54.396 69.648 29.255
846 1 1 0.0 55.254 69.648 29.346
847 1 1 0.0 54.049 69.92 28.521
848 1 6 0.0 54.181 68.803 31.495
849 1 7 0.0 53.331 68.536 32.599
850 1 8 0.0 53.693 68.778 33.751
851 1 8 0.0 52.203 68.082 32.375
852 1 7 0.0 55.552 68.639 31.722
853 1 8 0.0 55.953 68.082 32.754
854 1 8 0.0 56.352 69.014 30.842
855 1 6 0.0 54.486 72.582 35.317
856 1 7 0.0 55.797 72.668 35.477
857 1 1 0.0 56.129 72.954 36.174
858 1 1 0.0 56.385 72.348 34.857
859 1 7 0.0 53.714 72.967 36.303
860 1 1 0.0 52.856 72.966 36.212
861 1 1 0.0 54.061 73.238 37.037
862 1 6 0.0 53.929 72.122 34.064
863 1 7 0.0 54.779 71.854 32.959
864 1 8 0.0 54.416 72.097 31.808
865 1 8 0.0 55.907 71.401 33.184
866 1 7 0.0 52.558 71.957 33.836
867 1 8 0.0 52.156 71.401 32.804
868 1 8 0.0 51.758 72.332 34.716
869 1 6 0.0 51.016 72.703 29.683
870 1 7 0.0 52.327 72.616 29.844
871 1 1 0.0 52.659 72.331 30.541
872 1 1 0.0 52.915 72.936 29.224
873 1 7 0.0 50.245 72.318 30.67
874 1 1 0.0 49.386 72.318 30.579
875 1 1 0.0 50.592 72.046 31.404
876 1 6 0.0 50.46 73.163 28.431
877 1 7 0.0 51.309 73.43 27.326
878 1 8 0.0 50.947 73.188 26.174
879 1 8 0.0 52.438 73.884 27.55
880 1 7 0.0 49.089 73.327 28.203
881 1 8 0.0 48.687 73.884 27.171
882 1 8 0.0 48.288 72.952 29.083
883 1 6 0.0 50.154 69.384 24.608
884 1 7 0.0 48.844 69.298 24.448
885 1 1 0.0 48.511 69.012 23.751
886 1 1 0.0 48.255 69.618 25.068
887 1 7 0.0 50.926 68.999 23.622
888 1 1 0.0 51.784 69.0 23.713
889 1 1 0.0 50.579 68.728 22.888
890 1 6 0.0 50.711 69.844 25.861
891 1 7 0.0 49.862 70.111 26.966
892 1 8 0.0 50.224 69.869 28.117
893 1 8 0.0 48.733 70.565 26.741
894 1 7 0.0 52.082 70.009 26.089
895 1 8 0.0 52.484 70.565 27.121
896 1 8 0.0 52.882 69.634 25.209
897 1 6 0.0 60.563 69.263 30.168
898 1 7 0.0 59.252 69.35 30.007
899 1 1 0.0 58.92 69.635 29.31
900 1 1 0.0 58.664 69.03 30.627
901 1 7 0.0 61.335 69.648 29.181
902 1 1 0.0 62.193 69.648 29.272
903 1 1 0.0 60.988 69.92 28.447
904 1 6 0.0 61.12 68.803 31.421
905 1 7 0.0 60.27 68.536 32.525
906 1 8 0.0 60.633 68.778 33.677
907 1 8 0.0 59.142 68.082 32.301
908 1 7 0.0 62.491 68.639 31.648
909 1 8 0.0 62.893 68.082 32.68
910 1 8 0.0 63.291 69.014 30.768
911 1 6 0.0 61.425 72.582 35.243
912 1 7 0.0 62.736 72.668 35.403
913 1 1 0.0 63.068 72.954 36.1