LAMMPS data file via write_data, version 15 Apr 2020, timestep = 80000

672 atoms
4 atom types

1.3729750113836818e+00 2.8609025339619201e+01 xlo xhi
-1.0874664245098753e+00 1.3241466706809732e+01 ylo yhi
-4.7261276314640810e-01 2.0489612961546932e+01 zlo zhi
-1.6048798397049605e-01 4.8267877799781913e-03 8.0590059504068973e-02 xy xz yz

Masses

1 12.0107
2 14.0067
3 15.9994
4 1.00794

Atoms # full

1 1 1 8.5962077128669934e-02 5.2679046469784856e+00 5.2932640996000391e-01 2.8985094761332770e+00 0 0 0
2 1 1 9.1520177146939635e-02 1.9115373249687863e+01 6.6461747637239532e-01 2.7170008991447370e+00 0 0 0
3 1 1 1.0216893062930602e-01 1.0553299010614124e+01 1.1767250870112342e+01 1.3180176688879097e+01 0 0 0
4 1 1 7.9419539927910537e-02 2.4422293023778721e+01 1.1177335591039759e+01 1.3346702035152603e+01 0 0 0
5 1 1 9.2100160623203670e-02 1.2087794608877740e+01 1.1065924763609676e+01 2.8057303357719214e+00 0 0 0
6 1 1 1.0511155660022256e-01 2.5926441850778975e+01 1.1417345408119035e+01 2.9599435751306897e+00 0 0 0
7 1 1 1.0346365746384811e-01 4.1542116740394146e+00 1.0802868032204040e+00 1.3240802216784576e+01 0 0 0
8 1 1 8.2490814674554422e-02 1.7396803643720681e+01 9.7560655530128315e-01 1.3252584579323912e+01 0 0 0
9 1 1 8.5868850703818014e-02 5.1599440385657287e+00 7.8753283891142889e+00 2.9814791972667836e+00 0 0 0
10 1 1 9.4548618234934351e-02 1.9026292070750831e+01 7.8485273860919751e+00 2.8949688044355488e+00 0 0 0
11 1 1 9.6393792389817198e-02 1.0695097408923777e+01 4.5822329054145872e+00 1.3407566825985120e+01 0 0 0
12 1 1 9.5768233123241966e-02 2.4443762461180338e+01 4.0943600586568358e+00 1.3023590164344338e+01 0 0 0
13 1 1 1.0196127764943841e-01 1.2045357711000632e+01 4.0232425157990814e+00 2.7668097832906033e+00 0 0 0
14 1 1 8.8575725903937905e-02 2.5737551801442375e+01 3.9084866664466569e+00 2.3391452538706838e+00 0 0 0
15 1 1 8.5545729858307190e-02 3.9287255903564420e+00 8.3749164745444329e+00 1.3144845806337035e+01 0 0 0
16 1 1 8.0300408223810515e-02 1.7886826690435434e+01 8.3082044368784729e+00 1.3109734834267380e+01 0 0 0
17 1 1 1.0094356774472058e-02 6.4629916420534812e+00 -2.2312640263213890e-01 2.7380892476008296e+00 0 0 0
18 1 1 2.2020167821575398e-02 2.0270758004009679e+01 -1.4263924527380401e-01 2.3263203976992317e+00 0 0 0
19 1 1 2.9396526223140269e-02 9.3585664941184650e+00 1.2515732987631964e+01 1.2817919148215712e+01 0 0 0
20 1 1 9.9884734180188187e-03 2.3254846032483947e+01 1.1948881520658668e+01 1.3104029929079454e+01 0 0 0
21 1 1 2.4330046326518605e-02 1.3285147245210130e+01 1.1860454782178929e+01 2.7006048481024556e+00 0 0 0
22 1 1 2.2411009973637014e-03 2.6948523730149809e+01 1.2365216641761274e+01 2.6246731693720160e+00 0 0 0
23 1 1 3.5657726905168184e-02 3.0208616135027127e+00 3.5860446590974360e-01 1.2701099844506006e+01 0 0 0
24 1 1 1.9859705545225283e-02 1.6147533106933651e+01 3.4627768236276690e-01 1.2815507814184478e+01 0 0 0
25 1 1 1.0001416057727076e-02 6.2793205234339622e+00 7.1102399254803039e+00 2.5635870744494054e+00 0 0 0
26 1 1 4.8046314612884555e-04 2.0220452935178649e+01 7.1253987369190703e+00 2.6668235234669777e+00 0 0 0
27 1 1 1.9178110799957408e-02 9.5113037921431136e+00 5.1901184798135258e+00 1.2928603824233750e+01 0 0 0
28 1 1 5.6905759033484063e-03 2.3218943193072523e+01 4.7137711107761744e+00 1.2887813377274416e+01 0 0 0
29 1 1 1.4604176006804602e-02 1.3109447634312319e+01 4.8850014139545754e+00 2.2992770125878694e+00 0 0 0
30 1 1 1.5406995368867731e-02 2.6973722285085987e+01 4.6861121134328663e+00 2.2143627601865239e+00 0 0 0
31 1 1 4.3702552635050892e-03 2.7471772962576209e+00 7.5918759786289058e+00 1.2880495582489610e+01 0 0 0
32 1 1 -4.1970353023266169e-03 1.6644464352443876e+01 7.6285368822930213e+00 1.2985722648054438e+01 0 0 0
33 1 1 -3.5952514752087272e-02 7.3562301853063374e+00 3.2096028813713406e-01 1.7490172774265633e+00 0 0 0
34 1 1 -2.7143439132540213e-02 2.1108786380899041e+01 4.2527655005722220e-01 1.2652359932178205e+00 0 0 0
35 1 1 -3.0771182723524006e-02 8.7084673251060369e+00 1.2009336304194656e+01 1.1657928952760976e+01 0 0 0
36 1 1 -9.9539753435608884e-03 2.2449025764055676e+01 1.1648780849551361e+01 1.2010137546895987e+01 0 0 0
37 1 1 -4.9364268245671868e-02 1.4300470005675782e+01 1.1266772404011666e+01 1.9130933693656988e+00 0 0 0
38 1 1 -1.3328976311747256e-02 2.8031669094204783e+01 1.1870101460675913e+01 1.8490966658059045e+00 0 0 0
39 1 1 -1.5564021828307711e-02 2.2216198266787792e+00 1.1599034126139469e+00 1.1847709835550454e+01 0 0 0
40 1 1 -1.1947801932485590e-02 1.5425196207853316e+01 1.0258153061959838e+00 1.1820512187675805e+01 0 0 0
41 1 1 -1.5100125894568293e-02 6.9779139544396012e+00 7.6141802286091735e+00 1.4344520600089372e+00 0 0 0
42 1 1 -2.3408077607158104e-02 2.1174506214182419e+01 7.7444802352694175e+00 1.8002977205666779e+00 0 0 0
43 1 1 -1.9213826693833150e-02 8.8398599502709772e+00 4.3924816892902818e+00 1.1980762181131418e+01 0 0 0
44 1 1 -2.9010690529223514e-02 2.2175499427207477e+01 3.9357513646592714e+00 1.2346004723857009e+01 0 0 0
45 1 1 -2.0131533574619515e-02 1.3949067619806046e+01 4.3178264726839295e+00 1.3560193344316529e+00 0 0 0
46 1 1 -2.8596779983299046e-02 2.8044145646961230e+01 4.0942153031934714e+00 1.5479591829634542e+00 0 0 0
47 1 1 -3.4167813501942160e-02 1.8973153403362553e+00 8.1496388301014164e+00 1.1868144226727949e+01 0 0 0
48 1 1 -3.2346905431023767e-02 1.5700132889323376e+01 7.9954222229496352e+00 1.2004674473436175e+01 0 0 0
49 1 1 3.7447915278292138e-02 7.2208050005435318e+00 1.5348838223575414e+00 1.0735233852082160e+00 0 0 0
50 1 1 3.3387985662894401e-02 2.0735532358285976e+01 1.6279331223697224e+00 6.2536711260790256e-01 0 0 0
51 1 1 2.7533913576550866e-02 8.9468832193683845e+00 1.0724678332290047e+01 1.1069907478472112e+01 0 0 0
52 1 1 4.0785687398273374e-02 2.2593556939622204e+01 1.0417175768434529e+01 1.1289857766148360e+01 0 0 0
53 1 1 4.0583007800999583e-02 1.4123281306849936e+01 1.0102846327683942e+01 1.0901928253037765e+00 0 0 0
54 1 1 5.0142550462856525e-02 2.8004309670600289e+01 1.0597808370215555e+01 1.1272993560875848e+00 0 0 0
55 1 1 4.2293205514045619e-02 2.4900441545691878e+00 2.5230663242956020e+00 1.1462901608308000e+01 0 0 0
56 1 1 4.1549036765460678e-02 1.5777462046410987e+01 2.3802048356233905e+00 1.1437353765629258e+01 0 0 0
57 1 1 5.5539218818528850e-02 6.7092878882513620e+00 8.8870747872241189e+00 8.7702599455611008e-01 0 0 0
58 1 1 5.4962826472311072e-02 2.1073853195906189e+01 8.9820769602806649e+00 1.1451275272758421e+00 0 0 0
59 1 1 2.7979749845355627e-02 9.1680057056848465e+00 3.0827951041821864e+00 1.1539435062350965e+01 0 0 0
60 1 1 4.8302086557196366e-02 2.2358854051896166e+01 2.6134339460695517e+00 1.1871714296602324e+01 0 0 0
61 1 1 4.2666241563395831e-02 1.3790689557596039e+01 3.0326975408228849e+00 7.8900891769676007e-01 0 0 0
62 1 1 4.0399806268421830e-02 2.7932718916195032e+01 2.8201382671525907e+00 9.2576612176896078e-01 0 0 0
63 1 1 4.5664660180845112e-02 2.1923262455387107e+00 9.3398238068600747e+00 1.1138874546329555e+01 0 0 0
64 1 1 4.2790983853107971e-02 1.5887048452493664e+01 9.1478964965725122e+00 1.1175688729773054e+01 0 0 0
65 1 1 -2.7792238718487863e-02 6.0517881339780200e+00 2.3023956410828599e+00 1.4236169750396610e+00 0 0 0
66 1 1 -3.7007547421428963e-02 1.9645001156258452e+01 2.3482808558619164e+00 1.1413696901346442e+00 0 0 0
67 1 1 -2.4539856745217525e-02 1.0108525408099169e+01 1.0027004404897646e+01 1.1511596022608312e+01 0 0 0
68 1 1 -3.4035643036869782e-02 2.3675251994642686e+01 9.5723511258070335e+00 1.1728781939879498e+01 0 0 0
69 1 1 -3.6974097149971442e-02 1.2926047061812953e+01 9.4262223722153315e+00 1.1866834650036340e+00 0 0 0
70 1 1 -3.7382831785121723e-02 2.6958764448195200e+01 9.7193457282006310e+00 1.5427907540772665e+00 0 0 0
71 1 1 -4.6605508490631796e-02 3.6022584319418001e+00 3.1789717910171458e+00 1.2107205015930266e+01 0 0 0
72 1 1 -3.4559604075702625e-02 1.6933089644203680e+01 2.9832828517938728e+00 1.2035920232799448e+01 0 0 0
73 1 1 -3.1910893066745612e-02 5.5674921584212722e+00 9.5953562506444552e+00 1.3773453538358980e+00 0 0 0
74 1 1 -3.0888586525768060e-02 1.9910672447434333e+01 9.7272267550248603e+00 1.5286444512283164e+00 0 0 0
75 1 1 -3.2246842873757314e-02 1.0402272312294839e+01 2.5827107487147503e+00 1.2165042045855516e+01 0 0 0
76 1 1 -3.9259104481472296e-02 2.3504502504260500e+01 1.9093886375468081e+00 1.2403399001438226e+01 0 0 0
77 1 1 -3.0553069478301633e-02 1.2671735371245978e+01 2.2767366222262706e+00 1.2236274902244642e+00 0 0 0
78 1 1 -3.9346400640303272e-02 2.6749391306136157e+01 2.0843698591170394e+00 1.2350449618640622e+00 0 0 0
79 1 1 -2.8414926565393572e-02 3.3339885912403249e+00 1.0088775856922013e+01 1.1606111297994099e+01 0 0 0
80 1 1 -4.0678160519982583e-02 1.7024679937764020e+01 9.9305856921168392e+00 1.1522163925802360e+01 0 0 0
81 1 1 2.7874459824097239e-02 5.0698095818971254e+00 1.8407072569973773e+00 2.2973619683773308e+00 0 0 0
82 1 1 2.3843364636319871e-02 1.8690265142098283e+01 1.8990172825317067e+00 2.1223181227048129e+00 0 0 0
83 1 1 2.7615070689639091e-02 1.0945698181193674e+01 1.0550396049211900e+01 1.2548642236859243e+01 0 0 0
84 1 1 9.9199896589347060e-03 2.4615544780505907e+01 9.9259995319834076e+00 1.2689714209659382e+01 0 0 0
85 1 1 2.3052127542117662e-02 1.1875186023874345e+01 9.8305427153703917e+00 2.0840614989044344e+00 0 0 0
86 1 1 3.1034620022776176e-02 2.5842886082570452e+01 1.0102446632104556e+01 2.3725275795942289e+00 0 0 0
87 1 1 6.7916545664952893e-03 4.5304743372634357e+00 2.4358206057172338e+00 1.2862833728146507e+01 0 0 0
88 1 1 4.0750712115016768e-03 1.7862203250695135e+01 2.2708722242280390e+00 1.2877053496350589e+01 0 0 0
89 1 1 4.2475077235653719e-03 4.7585152386587559e+00 9.1673754447220333e+00 2.4488357284164599e+00 0 0 0
90 1 1 2.4052719248890575e-02 1.8875331469087175e+01 9.1887044201103230e+00 2.3754645329590471e+00 0 0 0
91 1 1 1.6152309741050613e-02 1.1164923949487120e+01 3.2551330621803949e+00 1.3093369131154727e+01 0 0 0
92 1 1 8.9812602938536303e-03 2.4640749529408723e+01 2.6962601570360847e+00 1.2750682400039748e+01 0 0 0
93 1 1 2.1690380881307807e-02 1.1834104608677190e+01 2.6848758116278959e+00 2.3069466602233324e+00 0 0 0
94 1 1 1.7697606043943697e-02 2.5661859388632049e+01 2.5529406979963998e+00 1.9982163902087335e+00 0 0 0
95 1 1 6.3557908718532077e-03 4.2380496577321196e+00 9.7034446444282842e+00 1.2618605901800771e+01 0 0 0
96 1 1 1.2266668079274082e-02 1.8032228630429302e+01 9.5966659736577835e+00 1.2473505787663976e+01 0 0 0
97 1 1 -2.7242320945854859e-01 4.1599654481443906e+00 -3.8652577907345220e-02 3.8406604209180877e+00 0 1 0
98 1 1 -2.6495745915176544e-01 1.8043867624661274e+01 -1.0324014094209122e-01 3.5532979599302372e+00 0 1 0
99 1 1 -2.6059471573003518e-01 1.1399643101545527e+01 1.2335351277899655e+01 1.4318969840836511e+01 0 -1 0
100 1 1 -2.7823864964369482e-01 2.5564315192394226e+01 1.1842421816235714e+01 1.4166435595385906e+01 0 -1 0
101 1 1 -2.6701388473649162e-01 1.0978285922891846e+01 1.1600247104985371e+01 3.7885721906358452e+00 0 -1 0
102 1 1 -2.6431556624111235e-01 2.4880758575276019e+01 1.1993083517215258e+01 3.9511084235004672e+00 0 -1 0
103 1 1 -2.6541272538514210e-01 5.0683279117717257e+00 3.9997228565163501e-01 1.4179743063248495e+01 0 1 0
104 1 1 -2.8970332388634429e-01 1.8439628170416704e+01 2.6957476185609153e-01 1.4105924458166227e+01 0 1 0
105 1 1 -2.7365729090351687e-01 4.1305968202566286e+00 7.1947553949649734e+00 3.9196449782624327e+00 0 0 0
106 1 1 -2.6879309367065563e-01 1.7844843323819557e+01 7.1007216091677705e+00 3.5613931103248824e+00 0 0 0
107 1 1 -2.8175877417656359e-01 1.1698979096042429e+01 5.3113076526239915e+00 1.4311722316217008e+01 0 0 0
108 1 1 -2.6444260878815412e-01 2.5635611359617513e+01 4.9503655555039083e+00 1.3555929366405474e+01 0 0 0
109 1 1 -2.7571736366028921e-01 1.0898107483700691e+01 4.6900820027913843e+00 3.5352717957708188e+00 0 0 0
110 1 1 -2.8222325438005402e-01 2.4404643559140958e+01 4.5094092352227335e+00 2.8530748991946688e+00 0 0 0
111 1 1 -2.7303608251328271e-01 5.0826939430650633e+00 7.7391389302422624e+00 1.3915152298489851e+01 0 0 0
112 1 1 -2.8845271719607890e-01 1.8959398788051026e+01 7.5548260289231859e+00 1.3879722935075376e+01 0 0 0
113 1 1 1.0004517219152059e-01 9.0655702930531987e+00 7.7760934180916275e-01 1.7315252094571605e+01 0 0 0
114 1 1 1.0565324850990977e-01 2.3059184916797932e+01 7.7138798109769491e-01 1.7166296189751243e+01 0 0 0
115 1 1 1.0999066048070497e-01 6.6645454166448710e+00 1.1323795950133402e+01 6.9759255996406129e+00 0 0 0
116 1 1 9.9450753194781361e-02 2.0479334771185485e+01 1.1810667160918214e+01 6.7641960188457642e+00 0 0 0
117 1 1 9.7172424001880503e-02 2.5873599618645837e+00 1.1450010158163265e+01 1.7299936220441321e+01 0 0 0
118 1 1 9.5458249563553838e-02 1.5904578894711808e+01 1.1567911544441763e+01 1.7110015229560155e+01 0 0 0
119 1 1 9.0581663107721977e-02 1.3973609524071854e+01 7.6660717057436911e-01 6.7834709544110714e+00 0 0 0
120 1 1 9.3549253710292962e-02 2.7439182077094536e+01 6.7693706492197747e-01 6.9792826719365539e+00 0 0 0
121 1 1 1.0292900014174951e-01 8.9231830953980165e+00 7.8820326119184880e+00 1.7550907529735692e+01 0 0 0
122 1 1 8.9052722632034370e-02 2.3167729462911840e+01 8.0704968648570503e+00 1.7275509201384253e+01 0 0 0
123 1 1 1.0245488862260616e-01 7.3583579846647300e+00 4.3721544506086181e+00 7.2308138098743537e+00 0 0 0
124 1 1 8.8635717511590564e-02 2.0617263461931600e+01 4.4857791158614120e+00 6.8209604646403195e+00 0 0 0
125 1 1 9.8455371498178540e-02 2.2747500232926354e+00 4.3510384681605601e+00 1.7071367554010909e+01 0 0 0
126 1 1 1.0816534610686770e-01 1.6258096487562085e+01 4.3128795586812174e+00 1.7487254795729427e+01 0 0 0
127 1 1 9.7763703595228318e-02 1.3795519326131751e+01 7.7947127429249470e+00 6.8660168124521830e+00 0 0 0
128 1 1 9.3419372779248333e-02 2.7511603044777150e+01 7.6938093904237217e+00 6.9788276891254180e+00 0 0 0
129 1 1 2.2015671549666119e-02 1.0246388858718161e+01 1.3604676066262571e+00 1.7804290228151991e+01 0 0 0
130 1 1 2.1703128488579769e-02 2.4442113501015761e+01 1.1490894450741949e+00 1.7403092062018441e+01 0 0 0
131 1 1 2.2308085402801582e-02 5.3852362266534044e+00 1.0848193678659866e+01 7.4283612677868343e+00 0 0 0
132 1 1 1.9770593470202016e-02 1.9333168753761417e+01 1.1025149887522876e+01 7.1022909874848343e+00 0 0 0
133 1 1 1.8340310404040910e-02 3.7870178351115893e+00 1.0969696593731761e+01 1.7870343881271378e+01 0 0 0
134 1 1 1.2201323384632531e-02 1.7149155120046551e+01 1.0983595737888106e+01 1.7518316351720010e+01 0 0 0
135 1 1 2.0652400171539995e-02 1.2827614710909652e+01 1.4507074762077981e+00 7.3340130270608110e+00 0 0 0
136 1 1 2.6660769422309410e-02 2.6224188259764883e+01 1.2109602930716190e+00 7.4935566624846199e+00 0 0 0
137 1 1 2.7434817114127430e-02 1.0281470480424447e+01 8.3599321052185669e+00 1.7777335502266009e+01 0 0 0
138 1 1 2.1433862573787769e-02 2.4332108468681586e+01 8.6587198357501354e+00 1.7898469326172997e+01 0 0 0
139 1 1 2.9602440806427915e-02 6.0060347239267209e+00 3.8830515143179056e+00 7.3651691372223409e+00 0 0 0
140 1 1 2.9358523157397617e-02 1.9374277841786835e+01 3.9872598657724510e+00 7.3683008032755035e+00 0 0 0
141 1 1 1.1532133022820138e-02 3.4992341435982315e+00 3.6320351663759798e+00 1.7293078944442605e+01 0 0 0
142 1 1 2.4061143954578680e-02 1.7486285468953394e+01 3.7967810579400130e+00 1.8046814050328322e+01 0 0 0
143 1 1 3.0847140218741190e-02 1.2560454601172891e+01 8.4480470266642129e+00 7.2059715178421175e+00 0 0 0
144 1 1 4.4453342936236442e-02 2.6275043852653983e+01 8.3534167873444503e+00 7.3104828767976429e+00 0 0 0
145 1 1 -2.0932969368773636e-02 1.1042274918762363e+01 5.3425803107589998e-01 1.8655312275956710e+01 0 0 0
146 1 1 -2.1016232937119177e-02 2.5156646760596065e+01 3.0854209723123738e-01 1.8254674930488150e+01 0 0 0
147 1 1 -2.5606629389160064e-02 4.6675015358141296e+00 1.1773002744958848e+01 8.2205532388936966e+00 0 0 0
148 1 1 -2.6025155190950635e-02 1.8500004922833480e+01 1.1682810836165416e+01 8.0684204308682475e+00 0 0 0
149 1 1 -3.3640454701727829e-02 4.6034301077806354e+00 1.1941125191399834e+01 1.8517693005980068e+01 0 0 0
150 1 1 -2.1661294543236034e-02 1.7884095282755236e+01 1.1701671977085898e+01 1.8506946698903214e+01 0 0 0
151 1 1 -2.1196896816746882e-02 1.2097960874178479e+01 6.7669823654284489e-01 8.2566906476538708e+00 0 0 0
152 1 1 -2.8464113275493030e-02 2.5670273739460885e+01 4.2258810507177968e-01 8.5972876250737276e+00 0 0 0
153 1 1 -4.3007356023606544e-02 1.1105972473669448e+01 7.4759542211708645e+00 1.8461710701708768e+01 0 0 0
154 1 1 -9.9007409837620214e-03 2.5033308556595710e+01 7.8040675108096540e+00 1.8788547335818205e+01 0 0 0
155 1 1 -3.5342690876984127e-02 5.1314330037233233e+00 4.7146982971672555e+00 8.1087656157957753e+00 0 0 0
156 1 1 -4.0632175663230879e-02 1.8543760172659098e+01 4.9149120195616414e+00 8.0527477619105667e+00 0 0 0
157 1 1 -6.5373581369089183e-03 4.3839409197851342e+00 4.2139742217465317e+00 1.8249341011038315e+01 0 0 0
158 1 1 -3.2163072559103910e-02 1.8295140598757229e+01 4.6404491834982338e+00 1.8850385614842104e+01 0 0 0
159 1 1 -3.1000550117400869e-02 1.1844143704583901e+01 7.6089615086925786e+00 8.1445562562236304e+00 0 0 0
160 1 1 -2.8224933653045941e-02 2.5430259374683807e+01 7.6222510225949041e+00 8.1799347964291780e+00 0 0 0
161 1 1 3.5948870112896811e-02 1.0624748927266177e+01 -7.8239972492901444e-01 1.9109934491141754e+01 0 0 0
162 1 1 4.1594323303569831e-02 2.4637255088715062e+01 -8.2259976611700003e-01 1.8875584566796210e+01 0 0 0
163 1 1 4.7891785451386580e-02 5.1997147687307068e+00 1.3072687631816619e+01 8.6333326201910072e+00 0 0 0
164 1 1 4.0520645487760749e-02 1.8699333564897497e+01 1.3002772683944873e+01 8.5559861424065389e+00 0 0 0
165 1 1 4.1638397454603224e-02 4.1785912161558922e+00 1.3264974381929386e+01 1.8873019469600177e+01 0 0 0
166 1 1 4.2496411509735141e-02 1.7392307021789463e+01 1.2855136107748788e+01 1.9115051320633132e+01 0 0 0
167 1 1 3.2830252966840515e-02 1.2593895041876900e+01 -5.8116418839072304e-01 8.6787763610734636e+00 0 0 0
168 1 1 2.0502280706487842e-02 2.6138970892508429e+01 -8.2846414589019979e-01 8.9864499315221291e+00 0 0 0
169 1 1 3.2634443807845782e-02 1.0754020918642404e+01 6.1362845149261132e+00 1.8812336962402231e+01 0 0 0
170 1 1 4.5183279365969532e-02 2.4654162882228377e+01 6.4634556307484932e+00 1.9030185440557844e+01 0 0 0
171 1 1 3.3062822415970319e-02 5.4389071471373809e+00 6.0121399142930390e+00 8.6149183694754452e+00 0 0 0
172 1 1 3.0634952438418142e-02 1.8964906334453005e+01 6.2456822957155769e+00 8.3211486481919508e+00 0 0 0
173 1 1 5.9893152882893735e-02 4.1055454594497824e+00 5.4760244877648061e+00 1.8892354738127491e+01 0 0 0
174 1 1 4.7672231497180702e-02 1.8035681830112892e+01 6.0245556475347284e+00 1.9103503245658477e+01 0 0 0
175 1 1 4.0654831312570736e-02 1.2187570528459659e+01 6.3539625121190788e+00 8.6845312051442338e+00 0 0 0
176 1 1 3.4480177382349118e-02 2.5625076606211923e+01 6.3397452214714525e+00 8.7315227603309857e+00 0 0 0
177 1 1 -3.1275342722732219e-02 9.3482038424318468e+00 1.3001915513738135e+01 1.8435634779548078e+01 0 -1 0
178 1 1 -2.1980428877690882e-02 2.3140866697108617e+01 1.3091492279240756e+01 1.8487451701414894e+01 0 -1 0
179 1 1 -3.0789843676768236e-02 6.5518762291495927e+00 -8.2616543162068179e-01 7.9703951554420200e+00 0 1 0
180 1 1 -3.0570436243486290e-02 2.0090747986843773e+01 -6.5105904873130460e-01 8.2714702096662975e+00 0 1 0
181 1 1 -2.7754482150124670e-02 3.0685471252565373e+00 -7.2054876134480805e-01 1.8339110951858704e+01 0 1 0
182 1 1 -4.2431046801479029e-02 1.6298836473780856e+01 -9.4239812342461593e-01 1.8686994074812727e+01 0 1 0
183 1 1 -3.7311985745033353e-02 1.3551596466537733e+01 1.3130008105240254e+01 8.0088142530297848e+00 0 -1 0
184 1 1 -4.4106583111630425e-02 2.7107410680965220e+01 1.2973115073537013e+01 8.2912874086764727e+00 0 -1 0
185 1 1 -3.0225663383370082e-02 9.4783307514329849e+00 5.6550738063033048e+00 1.8394935968236869e+01 0 0 0
186 1 1 -3.7319692957202374e-02 2.3433384160481253e+01 5.9359695703795845e+00 1.8413571514849306e+01 0 0 0
187 1 1 -3.5013636135165442e-02 6.7523116673725720e+00 6.4827601912784125e+00 8.2906321369856641e+00 0 0 0
188 1 1 -2.8567768857354077e-02 2.0178892751774800e+01 6.6577466032489658e+00 7.7356917613921645e+00 0 0 0
189 1 1 -2.5950296414902686e-02 2.9299475348067050e+00 6.1381066647857132e+00 1.8478057562580876e+01 0 0 0
190 1 1 -1.9394424692416069e-02 1.6817719183490713e+01 6.4724930115786634e+00 1.8493900369423535e+01 0 0 0
191 1 1 -2.1196154242743737e-02 1.3312243341410822e+01 5.7718734258500914e+00 7.9941951299607101e+00 0 0 0
192 1 1 -1.5240707563215675e-02 2.6859267545278822e+01 5.7110149076627179e+00 8.2186114712387681e+00 0 0 0
193 1 1 1.8670774901530053e-02 8.6444172607421876e+00 -5.6840616950443379e-01 1.7586557629750317e+01 0 0 0
194 1 1 2.5757742269745792e-02 2.2540368384627659e+01 -5.0629955044571684e-01 1.7556595982762243e+01 0 0 0
195 1 1 6.0577658951634361e-03 7.1818993121219563e+00 1.2604241437927923e+01 7.1595845086144054e+00 0 0 0
196 1 1 4.6007937820484734e-03 2.0797929967473035e+01 1.3130267426301632e+01 7.2870352073884668e+00 0 0 0
197 1 1 9.8321820766948641e-03 1.5371551566958214e+01 1.2799088747342491e+01 1.7643132406633224e+01 0 0 0
198 1 1 1.9786554084498777e-02 2.0632083200300637e+00 1.2776579238735374e+01 1.7553122660159502e+01 1 0 0
199 1 1 5.6969072653702095e-03 2.7889659998146097e+01 -6.0773305160763280e-01 7.2486664311416433e+00 -1 0 0
200 1 1 1.6808910592537807e-02 1.4425539602030554e+01 -5.6841578472073051e-01 6.9797162331209082e+00 0 0 0
201 1 1 1.1557846169223590e-02 8.5833214728126173e+00 6.5000539131210875e+00 1.7660405511177824e+01 0 0 0
202 1 1 3.1568324663751833e-02 2.2697386199916401e+01 6.7357965163283433e+00 1.7514838246644580e+01 0 0 0
203 1 1 1.1045381464275784e-02 7.6624064611060900e+00 5.7694921017586154e+00 7.4428992663657807e+00 0 0 0
204 1 1 1.6712507058926931e-02 2.1022630076781248e+01 5.8110859731131432e+00 6.9920321917977128e+00 0 0 0
205 1 1 2.2755707166793662e-02 1.5974752645228286e+01 5.6880738639043606e+00 1.7668978316893998e+01 0 0 0
206 1 1 2.3106264275279641e-02 1.9333931960257695e+00 5.6271933849599582e+00 1.7586599026081544e+01 1 0 0
207 1 1 2.1236083080134194e-02 2.7707281401050835e+01 6.2897999896201657e+00 7.2870963750140012e+00 -1 0 0
208 1 1 2.0327673411925408e-02 1.4234645581093311e+01 6.4570811062233693e+00 7.1482060473637796e+00 0 0 0
209 1 1 -2.7202568277544070e-01 8.1837381681227956e+00 1.4845448749725128e+00 1.6248962049123829e+01 0 0 0
210 1 1 -2.9207091553460179e-01 2.2063389875427671e+01 1.8136886811153716e+00 1.6536143835327142e+01 0 0 0
211 1 1 -2.7482146901207044e-01 7.6570088645976329e+00 1.0233016209943084e+01 6.4923015577968881e+00 0 0 0
212 1 1 -2.8806267289564991e-01 2.1528425616264894e+01 1.1102894573449715e+01 5.8964719111411270e+00 0 0 0
213 1 1 -2.6781030919072041e-01 1.5042743038919710e+01 1.0674248552700593e+01 1.6155291743336257e+01 0 0 0
214 1 1 -2.8917315060097748e-01 1.7506189583585785e+00 1.0441312056521895e+01 1.6423878855351958e+01 1 0 0
215 1 1 -2.9200159226033628e-01 2.8247400406848538e+01 1.5301563616078249e+00 5.9824082380925603e+00 -1 0 0
216 1 1 -2.7612981282918053e-01 1.4898263396693084e+01 1.4903454852588438e+00 5.8042759741125378e+00 0 0 0
217 1 1 -2.7900491284322898e-01 7.8074864977782603e+00 8.8484854428868687e+00 1.7040034198598704e+01 0 0 0
218 1 1 -2.9241446492288842e-01 2.2271794782789964e+01 9.0393690600691841e+00 1.6460710075199955e+01 0 0 0
219 1 1 -2.7791041679027595e-01 8.3753853836018450e+00 3.4983685196234848e+00 6.4670216198715922e+00 0 0 0
220 1 1 -2.8380644657800203e-01 2.1607682017280180e+01 3.5180249733975320e+00 6.1289137280892305e+00 0 0 0
221 1 1 -2.7157220700510976e-01 1.5347841332740863e+01 3.2569061527164305e+00 1.6778206101094952e+01 0 0 0
222 1 1 -2.8038236311918385e-01 2.8553983869975557e+01 3.6490479506881544e+00 1.6037879472656986e+01 0 0 0
223 1 1 -2.5958781577731904e-01 1.3463436975699459e+00 8.4949641234738227e+00 6.2188050946003859e+00 0 0 0
224 1 1 -2.7791309184193008e-01 1.4829018106961836e+01 8.7032062190548380e+00 6.1355435515158918e+00 0 0 0
225 1 2 3.6412825994336923e-01 6.6597261233798006e+00 1.2790394089514907e+01 3.4260710475267748e+00 0 0 0
226 1 2 3.4277994639118642e-01 2.0558981539792970e+01 1.2938603005796402e+01 2.9312706620564861e+00 0 0 0
227 1 2 3.8694469704050627e-01 8.9596171769584707e+00 -6.9016847110176283e-01 1.3634909114620607e+01 0 0 0
228 1 2 3.6254238630780689e-01 2.2838953746789802e+01 1.3144496664979275e+01 1.3958455020064594e+01 0 -1 0
229 1 2 3.7692262725142661e-01 1.3486730104542794e+01 1.3254936130148549e+01 3.3478809488996575e+00 0 -1 0
230 1 2 3.5424886421495960e-01 2.7319784672303559e+01 -5.8726705940645740e-01 3.2149940630470630e+00 0 0 0
231 1 2 3.6678928214447648e-01 2.6375987379672647e+00 -1.0278812459303550e+00 1.3169815750313052e+01 0 1 0
232 1 2 3.7260218060899641e-01 1.5658994425848551e+01 -9.1067383356805753e-01 1.3492471644192340e+01 0 1 0
233 1 2 3.6099236262292117e-01 6.6312018858975526e+00 5.7801911644822033e+00 3.2153106184488474e+00 0 0 0
234 1 2 3.7942603835302052e-01 2.0551538117261561e+01 5.7651126942563167e+00 3.2619449814273325e+00 0 0 0
235 1 2 3.8699201638453129e-01 9.0137487265621132e+00 6.5591500184379132e+00 1.3374946117419521e+01 0 0 0
236 1 2 3.9346138164945882e-01 2.2821045226930746e+01 6.1978661407188005e+00 1.3322047875376990e+01 0 0 0
237 1 2 3.6504932598235579e-01 1.3488535630257591e+01 6.2301552470374739e+00 2.9250591238971833e+00 0 0 0
238 1 2 3.4321224760196900e-01 2.7121218971802101e+01 6.0725963592660923e+00 2.7678142050911916e+00 0 0 0
239 1 2 3.4300109857338207e-01 2.4266605803028245e+00 6.3011370988581055e+00 1.3571340366445948e+01 0 0 0
240 1 2 3.5198127209183994e-01 1.6265602613157583e+01 6.4654357278275940e+00 1.3917542560129391e+01 0 0 0
241 1 2 3.5394941629690552e-01 8.2135226967027943e+00 1.9802315956838727e+00 -2.0382483795060247e-02 0 0 0
242 1 2 3.7688551322337965e-01 2.1601816565645933e+01 2.2562281907037449e+00 2.0416340511964005e+01 0 0 -1
243 1 2 3.7701265146181934e-01 7.8542032427927762e+00 1.0169513461402380e+01 1.0174160203289647e+01 0 0 0
244 1 2 3.5175606294967476e-01 2.1608116509949539e+01 1.0042397207476707e+01 1.0158098200743037e+01 0 0 0
245 1 2 3.4925124568122806e-01 1.5284429242979183e+01 9.5000484977662047e+00 2.2939396572035509e-01 0 0 0
246 1 2 3.5161700559383480e-01 1.6633217219682235e+00 1.0166995672782772e+01 -8.0091449911593449e-03 1 0 0
247 1 2 3.6297877342023416e-01 1.4662292070192002e+00 3.1774704021096669e+00 1.0522000894848556e+01 0 0 0
248 1 2 3.7213792231689230e-01 1.4767888191174805e+01 3.2227301002726794e+00 1.0579973367034420e+01 0 0 0
249 1 2 3.7637875685062633e-01 7.5823141588359704e+00 9.4426174664289260e+00 -2.4130917930650256e-01 0 0 0
250 1 2 3.5475030403517993e-01 2.2054760634317020e+01 9.4531675673117821e+00 7.8835161456548231e-02 0 0 0
251 1 2 3.3471504620237702e-01 8.3330247480091124e+00 2.3538711879054426e+00 1.0580725693883609e+01 0 0 0
252 1 2 3.6640049835139921e-01 2.1285846299969794e+01 1.8638217420525574e+00 1.1075848548433681e+01 0 0 0
253 1 2 3.7888555085836745e-01 1.4666977100655595e+01 2.5572888101394198e+00 -4.1384053584577130e-01 0 0 0
254 1 2 3.7156494236079879e-01 1.7631394990782039e+00 2.4021338499686427e+00 -1.0970631783590118e-01 1 0 0
255 1 2 3.8641721230115966e-01 1.4430337618671591e+00 9.7689987637963718e+00 9.8722703241658181e+00 0 0 0
256 1 2 3.6128517196287196e-01 1.5012993813503847e+01 9.5059114924943167e+00 1.0003777737788507e+01 0 0 0
257 1 2 3.8157893502585088e-01 3.8967671374230921e+00 2.7576246414635839e+00 2.6693272155271095e+00 0 0 0
258 1 2 3.9765745900972482e-01 1.7429435928492513e+01 2.6327537955878544e+00 2.5135859156388438e+00 0 0 0
259 1 2 4.0370397216542692e-01 1.2152197734329716e+01 9.7591605626686579e+00 1.3002341438238103e+01 0 0 0
260 1 2 3.9113790801734755e-01 2.5746382110307728e+01 8.9437799168210788e+00 1.3066362182888398e+01 0 0 0
261 1 2 3.8403250142443868e-01 1.0624796366213568e+01 8.9406837240179549e+00 2.1909120761700827e+00 0 0 0
262 1 2 3.9239048912713920e-01 2.4614499474899159e+01 9.2165569261377627e+00 2.4893110589558729e+00 0 0 0
263 1 2 4.0191922557727783e-01 5.6891896901842998e+00 3.2148142561804463e+00 1.3461605896405516e+01 0 0 0
264 1 2 3.9184234073402396e-01 1.9116336664531620e+01 3.0163867057756368e+00 1.3348564393151650e+01 0 0 0
265 1 2 4.0961275548085263e-01 3.6268416718334318e+00 1.0102657798707021e+01 2.9688036503932267e+00 0 0 0
266 1 2 3.8391947109416191e-01 1.7688763380418752e+01 1.0043786030215841e+01 2.7149146230178856e+00 0 0 0
267 1 2 4.0167827256677502e-01 1.2477457391432930e+01 2.5891761256441446e+00 1.3585986075287105e+01 0 0 0
268 1 2 3.6862610319478711e-01 2.6045405819974974e+01 2.0750246988439645e+00 1.2787911533146982e+01 0 0 0
269 1 2 3.7290030978524397e-01 1.0820042391594978e+01 1.7221201539654234e+00 2.9160174052671364e+00 0 0 0
270 1 2 3.9119698947244219e-01 2.4433469721011072e+01 1.6122380745071974e+00 2.3989024988171557e+00 0 0 0
271 1 2 3.7128202782875924e-01 5.4065947474703213e+00 1.0549570678265070e+01 1.3002707215874619e+01 0 0 0
272 1 2 3.5958717860618084e-01 1.9206116443682692e+01 1.0485754025689664e+01 1.2777699005997189e+01 0 0 0
273 1 2 3.6299994575403804e-01 1.0808265600539748e+01 2.6529776815983479e+00 1.7180207431962000e+01 0 0 0
274 1 2 3.7976762377484213e-01 2.5000484956675560e+01 2.4719774015683380e+00 1.6834619597036440e+01 0 0 0
275 1 2 3.8350561722172760e-01 4.9144705671786610e+00 9.4813928047328222e+00 7.0688397969856798e+00 0 0 0
276 1 2 3.8145710579727926e-01 1.8979452432116279e+01 9.6425227657711634e+00 6.5623075019171138e+00 0 0 0
277 1 2 3.8605525820372494e-01 4.3110761043626704e+00 9.5191116881253688e+00 1.7678434806289250e+01 0 0 0
278 1 2 3.6070791268582525e-01 1.7753745368186621e+01 9.6861612641381178e+00 1.7045913061515567e+01 0 0 0