ITEM: TIMESTEP
0
ITEM: NUMBER OF ATOMS
448
ITEM: BOX BOUNDS xy xz yz pp pp pp
-2.4186686450000000e-01 1.3879200000000001e+01 8.1284706647000001e-16
0.0000000000000000e+00 1.3274800000000003e+01 -2.4186686450000000e-01
0.0000000000000000e+00 2.2679910358299999e+01 1.4036330231000001e-15
ITEM: ATOMS id type xs ys zs
1 1 0.344067 0.120013 0.263921
2 2 0.245378 0.126528 0.25575
3 3 0.220942 0.153766 0.2165
4 3 0.20117 0.0993761 0.287023
5 2 0.401878 0.150496 0.218192
6 3 0.474628 0.148712 0.225634
7 3 0.368883 0.174082 0.180504
8 1 0.383504 0.0856134 0.318292
9 2 0.319246 0.0638126 0.369558
10 4 0.350111 0.0848291 0.421981
11 4 0.234615 0.0282245 0.356918
12 2 0.489038 0.0728022 0.329309
13 4 0.514821 0.0286997 0.37783
14 4 0.545969 0.10335 0.288294
15 1 0.405933 0.370013 0.486079
16 2 0.504622 0.376528 0.49425
17 3 0.529058 0.403766 0.5335
18 3 0.54883 0.349376 0.462977
19 2 0.348122 0.400496 0.531808
20 3 0.275372 0.398712 0.524366
21 3 0.381117 0.424082 0.569496
22 1 0.366496 0.335613 0.431708
23 2 0.430754 0.313813 0.380442
24 4 0.399889 0.334829 0.328019
25 4 0.515385 0.278224 0.393082
26 2 0.260962 0.322802 0.420691
27 4 0.235179 0.2787 0.37217
28 4 0.204031 0.35335 0.461706
29 1 0.155933 0.379987 0.236079
30 2 0.254622 0.373472 0.24425
31 3 0.279058 0.346234 0.2835
32 3 0.29883 0.400624 0.212977
33 2 0.0981223 0.349504 0.281808
34 3 0.025372 0.351288 0.274366
35 3 0.131117 0.325918 0.319496
36 1 0.116496 0.414387 0.181708
37 2 0.180754 0.436187 0.130442
38 4 0.149889 0.415171 0.0780188
39 4 0.265385 0.471776 0.143082
40 2 0.0109619 0.427198 0.170691
41 4 0.985179 0.4713 0.12217
42 4 0.954031 0.39665 0.211706
43 1 0.0940671 0.129987 0.0139205
44 2 0.995378 0.123472 0.0057503
45 3 0.970942 0.096234 0.9665
46 3 0.95117 0.150624 0.0370226
47 2 0.151878 0.0995036 0.968192
48 3 0.224628 0.101288 0.975634
49 3 0.118883 0.0759183 0.930504
50 1 0.133504 0.164387 0.068292
51 2 0.0692464 0.186187 0.119558
52 4 0.100111 0.165171 0.171981
53 4 0.984615 0.221776 0.106918
54 2 0.239038 0.177198 0.079309
55 4 0.264821 0.2213 0.12783
56 4 0.295969 0.14665 0.038294
57 1 0.844067 0.120013 0.263921
58 2 0.745378 0.126528 0.25575
59 3 0.720942 0.153766 0.2165
60 3 0.70117 0.0993761 0.287023
61 2 0.901878 0.150496 0.218192
62 3 0.974628 0.148712 0.225634
63 3 0.868883 0.174082 0.180504
64 1 0.883504 0.0856134 0.318292
65 2 0.819246 0.0638126 0.369558
66 4 0.850111 0.0848291 0.421981
67 4 0.734615 0.0282245 0.356918
68 2 0.989038 0.0728022 0.329309
69 4 0.0148213 0.0286997 0.37783
70 4 0.0459694 0.10335 0.288294
71 1 0.905933 0.370013 0.486079
72 2 0.00462216 0.376528 0.49425
73 3 0.0290576 0.403766 0.5335
74 3 0.0488305 0.349376 0.462977
75 2 0.848122 0.400496 0.531808
76 3 0.775372 0.398712 0.524366
77 3 0.881117 0.424082 0.569496
78 1 0.866496 0.335613 0.431708
79 2 0.930754 0.313813 0.380442
80 4 0.899889 0.334829 0.328019
81 4 0.0153849 0.278224 0.393082
82 2 0.760962 0.322802 0.420691
83 4 0.735179 0.2787 0.37217
84 4 0.704031 0.35335 0.461706
85 1 0.655933 0.379987 0.236079
86 2 0.754622 0.373472 0.24425
87 3 0.779058 0.346234 0.2835
88 3 0.79883 0.400624 0.212977
89 2 0.598122 0.349504 0.281808
90 3 0.525372 0.351288 0.274366
91 3 0.631117 0.325918 0.319496
92 1 0.616496 0.414387 0.181708
93 2 0.680754 0.436187 0.130442
94 4 0.649889 0.415171 0.0780188
95 4 0.765385 0.471776 0.143082
96 2 0.510962 0.427198 0.170691
97 4 0.485179 0.4713 0.12217
98 4 0.454031 0.39665 0.211706
99 1 0.594067 0.129987 0.0139205
100 2 0.495378 0.123472 0.0057503
101 3 0.470942 0.096234 0.9665
102 3 0.45117 0.150624 0.0370226
103 2 0.651878 0.0995036 0.968192
104 3 0.724628 0.101288 0.975634
105 3 0.618883 0.0759183 0.930504
106 1 0.633504 0.164387 0.068292
107 2 0.569246 0.186187 0.119558
108 4 0.600111 0.165171 0.171981
109 4 0.484615 0.221776 0.106918
110 2 0.739038 0.177198 0.079309
111 4 0.764821 0.2213 0.12783
112 4 0.795969 0.14665 0.038294
113 1 0.344067 0.620013 0.263921
114 2 0.245378 0.626528 0.25575
115 3 0.220942 0.653766 0.2165
116 3 0.20117 0.599376 0.287023
117 2 0.401878 0.650496 0.218192
118 3 0.474628 0.648712 0.225634
119 3 0.368883 0.674082 0.180504
120 1 0.383504 0.585613 0.318292
121 2 0.319246 0.563813 0.369558
122 4 0.350111 0.584829 0.421981
123 4 0.234615 0.528224 0.356918
124 2 0.489038 0.572802 0.329309
125 4 0.514821 0.5287 0.37783
126 4 0.545969 0.60335 0.288294
127 1 0.405933 0.870013 0.486079
128 2 0.504622 0.876528 0.49425
129 3 0.529058 0.903766 0.5335
130 3 0.54883 0.849376 0.462977
131 2 0.348122 0.900496 0.531808
132 3 0.275372 0.898712 0.524366
133 3 0.381117 0.924082 0.569496
134 1 0.366496 0.835613 0.431708
135 2 0.430754 0.813813 0.380442
136 4 0.399889 0.834829 0.328019
137 4 0.515385 0.778224 0.393082
138 2 0.260962 0.822802 0.420691
139 4 0.235179 0.7787 0.37217
140 4 0.204031 0.85335 0.461706
141 1 0.155933 0.879987 0.236079
142 2 0.254622 0.873472 0.24425
143 3 0.279058 0.846234 0.2835
144 3 0.29883 0.900624 0.212977
145 2 0.0981223 0.849504 0.281808
146 3 0.025372 0.851288 0.274366
147 3 0.131117 0.825918 0.319496
148 1 0.116496 0.914387 0.181708
149 2 0.180754 0.936187 0.130442
150 4 0.149889 0.915171 0.0780188
151 4 0.265385 0.971776 0.143082
152 2 0.0109619 0.927198 0.170691
153 4 0.985179 0.9713 0.12217
154 4 0.954031 0.89665 0.211706
155 1 0.0940671 0.629987 0.0139205
156 2 0.995378 0.623472 0.0057503
157 3 0.970942 0.596234 0.9665
158 3 0.95117 0.650624 0.0370226
159 2 0.151878 0.599504 0.968192
160 3 0.224628 0.601288 0.975634
161 3 0.118883 0.575918 0.930504
162 1 0.133504 0.664387 0.068292
163 2 0.0692464 0.686187 0.119558
164 4 0.100111 0.665171 0.171981
165 4 0.984615 0.721776 0.106918
166 2 0.239038 0.677198 0.079309
167 4 0.264821 0.7213 0.12783
168 4 0.295969 0.64665 0.038294
169 1 0.844067 0.620013 0.263921
170 2 0.745378 0.626528 0.25575
171 3 0.720942 0.653766 0.2165
172 3 0.70117 0.599376 0.287023
173 2 0.901878 0.650496 0.218192
174 3 0.974628 0.648712 0.225634
175 3 0.868883 0.674082 0.180504
176 1 0.883504 0.585613 0.318292
177 2 0.819246 0.563813 0.369558
178 4 0.850111 0.584829 0.421981
179 4 0.734615 0.528224 0.356918
180 2 0.989038 0.572802 0.329309
181 4 0.0148213 0.5287 0.37783
182 4 0.0459694 0.60335 0.288294
183 1 0.905933 0.870013 0.486079
184 2 0.00462216 0.876528 0.49425
185 3 0.0290576 0.903766 0.5335
186 3 0.0488305 0.849376 0.462977
187 2 0.848122 0.900496 0.531808
188 3 0.775372 0.898712 0.524366
189 3 0.881117 0.924082 0.569496
190 1 0.866496 0.835613 0.431708
191 2 0.930754 0.813813 0.380442
192 4 0.899889 0.834829 0.328019
193 4 0.0153849 0.778224 0.393082
194 2 0.760962 0.822802 0.420691
195 4 0.735179 0.7787 0.37217
196 4 0.704031 0.85335 0.461706
197 1 0.655933 0.879987 0.236079
198 2 0.754622 0.873472 0.24425
199 3 0.779058 0.846234 0.2835
200 3 0.79883 0.900624 0.212977
201 2 0.598122 0.849504 0.281808
202 3 0.525372 0.851288 0.274366
203 3 0.631117 0.825918 0.319496
204 1 0.616496 0.914387 0.181708
205 2 0.680754 0.936187 0.130442
206 4 0.649889 0.915171 0.0780188
207 4 0.765385 0.971776 0.143082
208 2 0.510962 0.927198 0.170691
209 4 0.485179 0.9713 0.12217
210 4 0.454031 0.89665 0.211706
211 1 0.594067 0.629987 0.0139205
212 2 0.495378 0.623472 0.0057503
213 3 0.470942 0.596234 0.9665
214 3 0.45117 0.650624 0.0370226
215 2 0.651878 0.599504 0.968192
216 3 0.724628 0.601288 0.975634
217 3 0.618883 0.575918 0.930504
218 1 0.633504 0.664387 0.068292
219 2 0.569246 0.686187 0.119558
220 4 0.600111 0.665171 0.171981
221 4 0.484615 0.721776 0.106918
222 2 0.739038 0.677198 0.079309
223 4 0.764821 0.7213 0.12783
224 4 0.795969 0.64665 0.038294
225 1 0.344067 0.120013 0.763921
226 2 0.245378 0.126528 0.75575
227 3 0.220942 0.153766 0.7165
228 3 0.20117 0.0993761 0.787023
229 2 0.401878 0.150496 0.718192
230 3 0.474628 0.148712 0.725634
231 3 0.368883 0.174082 0.680504
232 1 0.383504 0.0856134 0.818292
233 2 0.319246 0.0638126 0.869558
234 4 0.350111 0.0848291 0.921981
235 4 0.234615 0.0282245 0.856918
236 2 0.489038 0.0728022 0.829309
237 4 0.514821 0.0286997 0.87783
238 4 0.545969 0.10335 0.788294
239 1 0.405932 0.37001 0.986081
240 2 0.50462 0.376527 0.99425
241 3 0.529059 0.403766 0.0335003
242 3 0.548829 0.349377 0.962977
243 2 0.348123 0.400496 0.0318081
244 3 0.275372 0.398712 0.0243659
245 3 0.381116 0.424083 0.0694972
246 1 0.366504 0.335614 0.931709
247 2 0.430754 0.313814 0.880443
248 4 0.399892 0.334827 0.828023
249 4 0.515378 0.278227 0.89308
250 2 0.260966 0.322802 0.920692
251 4 0.235177 0.278698 0.872168
252 4 0.204028 0.353352 0.961708
253 1 0.155933 0.379987 0.736079
254 2 0.254622 0.373472 0.74425
255 3 0.279057 0.346234 0.7835
256 3 0.298831 0.400624 0.712977
257 2 0.0981223 0.349504 0.781808
258 3 0.025372 0.351288 0.774366
259 3 0.131117 0.325918 0.819496
260 1 0.116496 0.414387 0.681708
261 2 0.180754 0.436187 0.630442
262 4 0.149889 0.415171 0.578019
263 4 0.265385 0.471776 0.643082
264 2 0.0109619 0.427198 0.670691
265 4 0.985179 0.4713 0.62217
266 4 0.954031 0.39665 0.711706
267 1 0.0940671 0.129987 0.513921
268 2 0.995378 0.123472 0.50575
269 3 0.970942 0.096234 0.4665
270 3 0.95117 0.150624 0.537023
271 2 0.151878 0.0995036 0.468192
272 3 0.224628 0.101288 0.475634
273 3 0.118883 0.0759183 0.430504
274 1 0.133504 0.164387 0.568292
275 2 0.0692464 0.186187 0.619558
276 4 0.100111 0.165171 0.671981
277 4 0.984615 0.221776 0.606918
278 2 0.239038 0.177198 0.579309
279 4 0.264821 0.2213 0.62783
280 4 0.295969 0.14665 0.538294
281 1 0.844067 0.120013 0.763921
282 2 0.745378 0.126528 0.75575
283 3 0.720942 0.153766 0.7165
284 3 0.70117 0.0993761 0.787023
285 2 0.901878 0.150496 0.718192
286 3 0.974628 0.148712 0.725634
287 3 0.868883 0.174082 0.680504
288 1 0.883504 0.0856134 0.818292
289 2 0.819246 0.0638126 0.869558
290 4 0.850111 0.0848291 0.921981
291 4 0.734615 0.0282245 0.856918
292 2 0.989038 0.0728022 0.829309
293 4 0.0148213 0.0286997 0.87783
294 4 0.0459694 0.10335 0.788294
295 1 0.905933 0.370013 0.986079
296 2 0.00462216 0.376528 0.99425
297 3 0.0290576 0.403766 0.0334999
298 3 0.0488305 0.349376 0.962977
299 2 0.848122 0.400496 0.0318077
300 3 0.775372 0.398712 0.0243661
301 3 0.881117 0.424082 0.0694957
302 1 0.866496 0.335613 0.931708
303 2 0.930754 0.313813 0.880442
304 4 0.899889 0.334829 0.828019
305 4 0.0153849 0.278224 0.893082
306 2 0.760962 0.322802 0.920691
307 4 0.735179 0.2787 0.87217
308 4 0.704031 0.35335 0.961706
309 1 0.655933 0.379987 0.736079
310 2 0.754622 0.373472 0.74425
311 3 0.779058 0.346234 0.7835
312 3 0.79883 0.400624 0.712977
313 2 0.598122 0.349504 0.781808
314 3 0.525372 0.351288 0.774366
315 3 0.631117 0.325918 0.819496
316 1 0.616496 0.414387 0.681708
317 2 0.680754 0.436187 0.630442
318 4 0.649889 0.415171 0.578019
319 4 0.765385 0.471776 0.643082
320 2 0.510962 0.427198 0.670691
321 4 0.485179 0.4713 0.62217
322 4 0.454031 0.39665 0.711706
323 1 0.594067 0.129987 0.513921
324 2 0.495378 0.123472 0.50575
325 3 0.470942 0.096234 0.4665
326 3 0.45117 0.150624 0.537023
327 2 0.651878 0.0995036 0.468192
328 3 0.724628 0.101288 0.475634
329 3 0.618883 0.0759183 0.430504
330 1 0.633504 0.164387 0.568292
331 2 0.569246 0.186187 0.619558
332 4 0.600111 0.165171 0.671981
333 4 0.484615 0.221776 0.606918
334 2 0.739038 0.177198 0.579309
335 4 0.764821 0.2213 0.62783
336 4 0.795969 0.14665 0.538294
337 1 0.344067 0.620013 0.763921
338 2 0.245378 0.626528 0.75575
339 3 0.220942 0.653766 0.7165
340 3 0.20117 0.599376 0.787023
341 2 0.401878 0.650496 0.718192
342 3 0.474628 0.648712 0.725634
343 3 0.368883 0.674082 0.680504
344 1 0.383504 0.585613 0.818292
345 2 0.319246 0.563813 0.869558
346 4 0.350111 0.584829 0.921981
347 4 0.234615 0.528224 0.856918
348 2 0.489038 0.572802 0.829309
349 4 0.514821 0.5287 0.87783
350 4 0.545969 0.60335 0.788294
351 1 0.405932 0.87001 0.986081
352 2 0.50462 0.876527 0.99425
353 3 0.529059 0.903766 0.0335003
354 3 0.548829 0.849377 0.962977
355 2 0.348123 0.900496 0.0318081
356 3 0.275372 0.898712 0.0243659
357 3 0.381116 0.924083 0.0694972
358 1 0.366504 0.835614 0.931709
359 2 0.430754 0.813814 0.880443
360 4 0.399892 0.834827 0.828023
361 4 0.515378 0.778227 0.89308
362 2 0.260966 0.822802 0.920692
363 4 0.235177 0.778698 0.872168
364 4 0.204028 0.853352 0.961708
365 1 0.155933 0.879987 0.736079
366 2 0.254622 0.873472 0.74425
367 3 0.279057 0.846234 0.7835
368 3 0.298831 0.900624 0.712977
369 2 0.0981223 0.849504 0.781808
370 3 0.025372 0.851288 0.774366
371 3 0.131117 0.825918 0.819496
372 1 0.116496 0.914387 0.681708
373 2 0.180754 0.936187 0.630442
374 4 0.149889 0.915171 0.578019
375 4 0.265385 0.971776 0.643082
376 2 0.0109619 0.927198 0.670691
377 4 0.985179 0.9713 0.62217
378 4 0.954031 0.89665 0.711706
379 1 0.0940671 0.629987 0.513921
380 2 0.995378 0.623472 0.50575
381 3 0.970942 0.596234 0.4665
382 3 0.95117 0.650624 0.537023
383 2 0.151878 0.599504 0.468192
384 3 0.224628 0.601288 0.475634
385 3 0.118883 0.575918 0.430504
386 1 0.133504 0.664387 0.568292
387 2 0.0692464 0.686187 0.619558
388 4 0.100111 0.665171 0.671981
389 4 0.984615 0.721776 0.606918
390 2 0.239038 0.677198 0.579309
391 4 0.264821 0.7213 0.62783
392 4 0.295969 0.64665 0.538294
393 1 0.844067 0.620013 0.763921
394 2 0.745378 0.626528 0.75575
395 3 0.720942 0.653766 0.7165
396 3 0.70117 0.599376 0.787023
397 2 0.901878 0.650496 0.718192
398 3 0.974628 0.648712 0.725634
399 3 0.868883 0.674082 0.680504
400 1 0.883504 0.585613 0.818292
401 2 0.819246 0.563813 0.869558
402 4 0.850111 0.584829 0.921981
403 4 0.734615 0.528224 0.856918
404 2 0.989038 0.572802 0.829309
405 4 0.0148213 0.5287 0.87783
406 4 0.0459694 0.60335 0.788294
407 1 0.905933 0.870013 0.986079
408 2 0.00462216 0.876528 0.99425
409 3 0.0290576 0.903766 0.0334999
410 3 0.0488305 0.849376 0.962977
411 2 0.848122 0.900496 0.0318077
412 3 0.775372 0.898712 0.0243661
413 3 0.881117 0.924082 0.0694957
414 1 0.866496 0.835613 0.931708
415 2 0.930754 0.813813 0.880442
416 4 0.899889 0.834829 0.828019
417 4 0.0153849 0.778224 0.893082
418 2 0.760962 0.822802 0.920691
419 4 0.735179 0.7787 0.87217
420 4 0.704031 0.85335 0.961706
421 1 0.655933 0.879987 0.736079
422 2 0.754622 0.873472 0.74425
423 3 0.779058 0.846234 0.7835
424 3 0.79883 0.900624 0.712977
425 2 0.598122 0.849504 0.781808
426 3 0.525372 0.851288 0.774366
427 3 0.631117 0.825918 0.819496
428 1 0.616496 0.914387 0.681708
429 2 0.680754 0.936187 0.630442
430 4 0.649889 0.915171 0.578019
431 4 0.765385 0.971776 0.643082
432 2 0.510962 0.927198 0.670691
433 4 0.485179 0.9713 0.62217
434 4 0.454031 0.89665 0.711706
435 1 0.594067 0.629987 0.513921
436 2 0.495378 0.623472 0.50575
437 3 0.470942 0.596234 0.4665
438 3 0.45117 0.650624 0.537023
439 2 0.651878 0.599504 0.468192
440 3 0.724628 0.601288 0.475634
441 3 0.618883 0.575918 0.430504
442 1 0.633504 0.664387 0.568292
443 2 0.569246 0.686187 0.619558
444 4 0.600111 0.665171 0.671981
445 4 0.484615 0.721776 0.606918
446 2 0.739038 0.677198 0.579309
447 4 0.764821 0.7213 0.62783
448 4 0.795969 0.64665 0.538294
ITEM: TIMESTEP
1000
ITEM: NUMBER OF ATOMS
448
ITEM: BOX BOUNDS xy xz yz pp pp pp
-3.7488291489613923e-01 1.3708442551834956e+01 -4.7739802159422765e-02
2.1507606185813899e-01 1.3007188542911084e+01 -4.9790056090173895e-01
7.5580950274399150e-01 2.1924100855556055e+01 -5.2535395230805089e-02
ITEM: ATOMS id type xs ys zs
1 1 0.359743 0.137414 0.266187
2 2 0.260601 0.147055 0.253717
3 3 0.244497 0.170253 0.206147
4 3 0.213648 0.104299 0.284187
5 2 0.42964 0.179134 0.226871
6 3 0.505239 0.159439 0.245686
7 3 0.399209 0.220821 0.183804
8 1 0.396306 0.0752285 0.319283
9 2 0.331582 0.0470729 0.371224
10 4 0.361867 0.0630693 0.428738
11 4 0.246291 0.0100077 0.355333
12 2 0.503022 0.044995 0.331528
13 4 0.523353 0.978377 0.374091
14 4 0.570942 0.0876582 0.297772
15 1 0.397293 0.372071 0.490125
16 2 0.494765 0.413985 0.492696
17 3 0.51282 0.45307 0.535257
18 3 0.53641 0.395954 0.451038
19 2 0.339708 0.388739 0.542505
20 3 0.259463 0.357462 0.530223
21 3 0.380196 0.415217 0.581207
22 1 0.364948 0.31254 0.437549
23 2 0.431132 0.285918 0.382599
24 4 0.413629 0.318135 0.326965
25 4 0.511004 0.236709 0.400717
26 2 0.258565 0.28717 0.426095
27 4 0.237659 0.253906 0.369964
28 4 0.195505 0.315395 0.468454
29 1 0.161035 0.39684 0.242473
30 2 0.264036 0.388981 0.248081
31 3 0.288553 0.364919 0.293234
32 3 0.300935 0.411639 0.20875
33 2 0.105278 0.353363 0.292479
34 3 0.0347293 0.378613 0.285977
35 3 0.147994 0.365694 0.333386
36 1 0.122225 0.436872 0.184852
37 2 0.190185 0.485653 0.138438
38 4 0.172813 0.452648 0.0813686
39 4 0.263159 0.54738 0.15246
40 2 0.0133391 0.443344 0.168998
41 4 0.990231 0.496947 0.119326
42 4 0.951393 0.400308 0.206832
43 1 0.10778 0.125887 0.0180011
44 2 0.00414792 0.131102 0.00446114
45 3 0.987308 0.0988368 0.959988
46 3 0.972172 0.167254 0.0412829
47 2 0.167402 0.0794572 0.974163
48 3 0.242839 0.0720567 0.989478
49 3 0.122315 0.0373448 0.940775
50 1 0.149703 0.169275 0.0748381
51 2 0.0865107 0.212739 0.12624
52 4 0.121521 0.224119 0.18279
53 4 0.999326 0.249651 0.112067
54 2 0.257329 0.186158 0.0850149
55 4 0.282065 0.253332 0.129163
56 4 0.31603 0.144955 0.0448966
57 1 0.852056 0.121639 0.260577
58 2 0.7488 0.136221 0.253669
59 3 0.727009 0.128826 0.208393
60 3 0.714856 0.0947115 0.291559
61 2 0.920449 0.155772 0.215203
62 3 0.994516 0.159925 0.237182
63 3 0.880469 0.19423 0.177708
64 1 0.888273 0.078518 0.317517
65 2 0.817654 0.0385551 0.366534
66 4 0.846354 0.0608938 0.424001
67 4 0.7397 0.983915 0.354428
68 2 0.99621 0.0596313 0.332866
69 4 0.0141419 0.00288801 0.38109
70 4 0.0622579 0.101571 0.298065
71 1 0.902673 0.363549 0.493216
72 2 0.00323686 0.359863 0.511777
73 3 0.016268 0.377644 0.561319
74 3 0.0499446 0.336452 0.474882
75 2 0.838766 0.406831 0.538637
76 3 0.768593 0.422497 0.516379
77 3 0.867891 0.424957 0.580295
78 1 0.868545 0.324986 0.43383
79 2 0.940041 0.296929 0.38373
80 4 0.905085 0.29571 0.325984
81 4 0.0289977 0.271565 0.399646
82 2 0.761097 0.314598 0.416181
83 4 0.736901 0.261195 0.366768
84 4 0.699634 0.360665 0.452487
85 1 0.662818 0.398679 0.243092
86 2 0.767651 0.397251 0.254675
87 3 0.786696 0.343918 0.288404
88 3 0.80626 0.447808 0.223642
89 2 0.59554 0.370422 0.288143
90 3 0.522917 0.377057 0.275038
91 3 0.634423 0.354973 0.329335
92 1 0.623991 0.435043 0.183992
93 2 0.687959 0.457108 0.130496
94 4 0.647585 0.467048 0.0748224
95 4 0.782701 0.463955 0.141028
96 2 0.513391 0.449877 0.171095
97 4 0.488955 0.49416 0.119417
98 4 0.449414 0.429846 0.214518
99 1 0.593593 0.137932 0.00359963
100 2 0.492365 0.111928 0.999657
101 3 0.47394 0.0926508 0.952574
102 3 0.456413 0.132461 0.0432072
103 2 0.654032 0.109507 0.953543
104 3 0.728494 0.128502 0.965743
105 3 0.620113 0.0894784 0.91124
106 1 0.632461 0.18567 0.0593629
107 2 0.56121 0.226413 0.107608
108 4 0.584907 0.21889 0.167128
109 4 0.487858 0.281504 0.0881288
110 2 0.742369 0.18763 0.0739053
111 4 0.769169 0.217735 0.129431
112 4 0.800624 0.163507 0.0299562
113 1 0.366816 0.627907 0.259534
114 2 0.262874 0.638986 0.254484
115 3 0.255655 0.684875 0.213628
116 3 0.225344 0.637461 0.297071
117 2 0.422427 0.655136 0.208767
118 3 0.498584 0.648014 0.220077
119 3 0.387196 0.67702 0.167724
120 1 0.40387 0.580085 0.316471
121 2 0.331856 0.545255 0.364808
122 4 0.361946 0.544917 0.422568
123 4 0.247947 0.503103 0.347682
124 2 0.510423 0.557612 0.328362
125 4 0.530722 0.504802 0.379451
126 4 0.576076 0.579479 0.287662
127 1 0.383812 0.875972 0.488936
128 2 0.485572 0.896198 0.495054
129 3 0.510371 0.938659 0.538271
130 3 0.518917 0.866138 0.455741
131 2 0.316583 0.902784 0.537724
132 3 0.240832 0.894019 0.518492
133 3 0.354852 0.938589 0.57543
134 1 0.351322 0.824818 0.431808
135 2 0.428875 0.789603 0.386074
136 4 0.405468 0.820035 0.329461
137 4 0.502567 0.730578 0.401627
138 2 0.246029 0.80412 0.418727
139 4 0.227875 0.750482 0.367283
140 4 0.181637 0.832138 0.459883
141 1 0.137438 0.895668 0.24513
142 2 0.240784 0.887219 0.260207
143 3 0.238814 0.870248 0.307576
144 3 0.282674 0.933766 0.229271
145 2 0.070383 0.847501 0.285144
146 3 0.987253 0.860924 0.27716
147 3 0.110551 0.814511 0.323028
148 1 0.10088 0.943775 0.189241
149 2 0.170737 0.969656 0.137606
150 4 0.142601 0.944341 0.0809482
151 4 0.250525 0.0191996 0.150938
152 2 0.991472 0.944539 0.17438
153 4 0.96956 0.994365 0.12339
154 4 0.931787 0.904386 0.213552
155 1 0.119455 0.633503 0.0217153
156 2 0.0200773 0.631416 0.00712166
157 3 0.0018535 0.584073 0.967773
158 3 0.977951 0.671954 0.037099
159 2 0.182474 0.579484 0.983392
160 3 0.256518 0.585052 0.00168609
161 3 0.14152 0.54486 0.94341
162 1 0.15766 0.698196 0.0742229
163 2 0.0883113 0.730069 0.123374
164 4 0.119192 0.708127 0.180644
165 4 0.00549838 0.773785 0.108429
166 2 0.265172 0.710447 0.0853321
167 4 0.287912 0.777092 0.131461
168 4 0.330765 0.660368 0.0554986
169 1 0.866383 0.621447 0.265418
170 2 0.763707 0.62257 0.254273
171 3 0.749712 0.681804 0.218462
172 3 0.715257 0.582684 0.287152
173 2 0.927007 0.667045 0.224264
174 3 0.00929658 0.664142 0.243362
175 3 0.89653 0.699538 0.184044
176 1 0.905744 0.578816 0.324067
177 2 0.833692 0.542448 0.373763
178 4 0.866215 0.543248 0.43084
179 4 0.756095 0.489664 0.356737
180 2 0.0105509 0.557534 0.333485
181 4 0.0339485 0.493166 0.377645
182 4 0.0747504 0.604044 0.297705
183 1 0.873423 0.878571 0.488913
184 2 0.971889 0.860342 0.508273
185 3 0.987487 0.89037 0.553064
186 3 0.000491018 0.812654 0.470124
187 2 0.806058 0.925945 0.52892
188 3 0.732374 0.89849 0.515283
189 3 0.836498 0.931358 0.5766
190 1 0.833942 0.832164 0.431238
191 2 0.906327 0.806707 0.380638
192 4 0.872417 0.803641 0.323905
193 4 0.999383 0.787416 0.392566
194 2 0.729833 0.804846 0.417639
195 4 0.711915 0.743187 0.369658
196 4 0.664481 0.841579 0.455601
197 1 0.641513 0.89308 0.230652
198 2 0.741122 0.883727 0.241506
199 3 0.753019 0.845376 0.285035
200 3 0.783674 0.943607 0.206829
201 2 0.583687 0.854993 0.28044
202 3 0.505918 0.872082 0.26751
203 3 0.623746 0.846317 0.325766
204 1 0.60154 0.932414 0.170491
205 2 0.67122 0.945787 0.119915
206 4 0.633894 0.96315 0.0643834
207 4 0.765539 0.957924 0.133137
208 2 0.494358 0.955234 0.166491
209 4 0.468316 0.00492406 0.115862
210 4 0.433554 0.942107 0.212635
211 1 0.615615 0.638187 0.00631428
212 2 0.517022 0.599633 0.00548898
213 3 0.487649 0.569029 0.963989
214 3 0.478999 0.630382 0.0469202
215 2 0.675017 0.622972 0.951761
216 3 0.754346 0.633293 0.964797
217 3 0.64534 0.56483 0.923
218 1 0.65443 0.690434 0.0594908
219 2 0.584563 0.722526 0.111704
220 4 0.592669 0.669075 0.163091
221 4 0.509665 0.778308 0.0956211
222 2 0.7648 0.707711 0.0708618
223 4 0.787556 0.739318 0.127805
224 4 0.82184 0.675833 0.0283148
225 1 0.342738 0.120334 0.757736
226 2 0.242503 0.118123 0.738685
227 3 0.23873 0.16551 0.698907
228 3 0.20121 0.0636653 0.771972
229 2 0.407193 0.183996 0.720626
230 3 0.472306 0.193162 0.747908
231 3 0.384557 0.191022 0.673815
232 1 0.375392 0.0749968 0.814873
233 2 0.310791 0.044597 0.868506
234 4 0.34945 0.0395383 0.925066
235 4 0.223132 0.0118165 0.857991
236 2 0.486779 0.0571926 0.829222
237 4 0.512638 0.994621 0.873546
238 4 0.549567 0.10385 0.794524
239 1 0.403892 0.360297 0.992113
240 2 0.505919 0.388134 0.993266
241 3 0.524165 0.408872 0.0411084
242 3 0.539333 0.370865 0.948816
243 2 0.339888 0.385789 0.042128
244 3 0.269888 0.351543 0.0312105
245 3 0.383313 0.392557 0.0840491
246 1 0.362594 0.309361 0.939254
247 2 0.427263 0.266199 0.888385
248 4 0.398648 0.283917 0.830304
249 4 0.513517 0.230073 0.902768
250 2 0.252561 0.289291 0.929816
251 4 0.23151 0.242128 0.878152
252 4 0.190543 0.305959 0.973942
253 1 0.142963 0.373891 0.747503
254 2 0.245938 0.348583 0.754577
255 3 0.257133 0.345005 0.801965
256 3 0.287908 0.378408 0.718322
257 2 0.0781657 0.352556 0.796298
258 3 0.000429301 0.357216 0.778973
259 3 0.116373 0.298681 0.826716
260 1 0.104181 0.421845 0.692325
261 2 0.169411 0.449759 0.638152
262 4 0.137045 0.422916 0.583936
263 4 0.251269 0.498709 0.650299
264 2 0.996311 0.437575 0.676268
265 4 0.977808 0.495834 0.628066
266 4 0.928431 0.400441 0.711707
267 1 0.0947666 0.121525 0.510233
268 2 0.994548 0.134313 0.493563
269 3 0.975479 0.0734138 0.461272
270 3 0.948618 0.171663 0.529167
271 2 0.155882 0.0723401 0.465036
272 3 0.228915 0.0776627 0.479465
273 3 0.124949 0.0804283 0.419549
274 1 0.13956 0.164528 0.565641
275 2 0.0689559 0.182763 0.617777
276 4 0.106477 0.190286 0.673767
277 4 0.97476 0.188842 0.60423
278 2 0.248051 0.183971 0.575191
279 4 0.272485 0.247116 0.619653
280 4 0.308249 0.146192 0.533915
281 1 0.845556 0.101871 0.757731
282 2 0.746943 0.132097 0.756271
283 3 0.724057 0.180908 0.71867
284 3 0.722003 0.126709 0.806884
285 2 0.901972 0.113142 0.702784
286 3 0.978473 0.0685571 0.706063
287 3 0.867113 0.144854 0.661064
288 1 0.883028 0.0557518 0.813751
289 2 0.818852 0.0368405 0.871099
290 4 0.854124 0.0601885 0.926161
291 4 0.730671 0.00455092 0.861355
292 2 0.992433 0.0455332 0.821329
293 4 0.0255915 0.0366431 0.877299
294 4 0.0453168 0.0497629 0.770718
295 1 0.896146 0.375359 0.987968
296 2 0.99637 0.371212 0.999398
297 3 0.0182597 0.408092 0.0421461
298 3 0.0394706 0.321395 0.963561
299 2 0.835842 0.417781 0.0341647
300 3 0.755849 0.413633 0.0208694
301 3 0.867208 0.447846 0.0753318
302 1 0.858312 0.327319 0.931026
303 2 0.925059 0.283305 0.880142
304 4 0.880061 0.26783 0.828526
305 4 0.0184001 0.26617 0.892201
306 2 0.749546 0.310929 0.922227
307 4 0.721141 0.246059 0.879007
308 4 0.690005 0.354138 0.961188
309 1 0.636508 0.375503 0.736903
310 2 0.735765 0.372283 0.754027
311 3 0.742929 0.32968 0.796334
312 3 0.788877 0.389022 0.71811
313 2 0.568336 0.324195 0.776012
314 3 0.490957 0.332377 0.759976
315 3 0.59592 0.328273 0.822254
316 1 0.606653 0.428024 0.680083
317 2 0.676923 0.460776 0.630167
318 4 0.640965 0.466406 0.573548
319 4 0.769371 0.475301 0.64306
320 2 0.50046 0.451395 0.668114
321 4 0.483281 0.516193 0.620166
322 4 0.43502 0.41891 0.70469
323 1 0.595825 0.150764 0.501503
324 2 0.493947 0.136262 0.494399
325 3 0.481594 0.0992826 0.45294
326 3 0.457914 0.157325 0.53678
327 2 0.664553 0.116311 0.454003
328 3 0.737479 0.132644 0.470576
329 3 0.631184 0.0666074 0.417936
330 1 0.627818 0.192851 0.559625
331 2 0.555899 0.222992 0.610826
332 4 0.581198 0.202182 0.66799
333 4 0.481842 0.283422 0.596136
334 2 0.736284 0.206785 0.574836
335 4 0.762721 0.247973 0.626502
336 4 0.798526 0.171711 0.533273
337 1 0.353281 0.604066 0.762562
338 2 0.249492 0.613533 0.750417
339 3 0.242826 0.63276 0.701053
340 3 0.207599 0.570879 0.782423
341 2 0.41571 0.625015 0.712134
342 3 0.489547 0.615071 0.724047
343 3 0.372982 0.63319 0.67341
344 1 0.393303 0.56436 0.819875
345 2 0.326384 0.530502 0.870504
346 4 0.349064 0.557118 0.927579
347 4 0.247014 0.480815 0.851696
348 2 0.502811 0.544815 0.831476
349 4 0.527173 0.497491 0.882532
350 4 0.567029 0.565882 0.789742
351 1 0.391355 0.856599 0.98215
352 2 0.490277 0.880893 0.991948
353 3 0.505769 0.908802 0.0397205
354 3 0.535262 0.847786 0.956414
355 2 0.322094 0.884433 0.02894
356 3 0.24392 0.891281 0.0111251
357 3 0.360701 0.908056 0.0721603
358 1 0.35165 0.811861 0.92535
359 2 0.414335 0.786945 0.869101
360 4 0.376711 0.799934 0.813605
361 4 0.49749 0.747382 0.885479
362 2 0.243946 0.786944 0.916268
363 4 0.226393 0.717173 0.873425
364 4 0.181315 0.831821 0.951747
365 1 0.138658 0.859112 0.743924
366 2 0.237211 0.883244 0.761344
367 3 0.25721 0.846051 0.806052
368 3 0.28134 0.917621 0.718698
369 2 0.0808354 0.798645 0.78301
370 3 0.00297261 0.792725 0.764593
371 3 0.11749 0.787637 0.824702
372 1 0.0963029 0.902754 0.687326
373 2 0.16477 0.93013 0.634539
374 4 0.119389 0.943764 0.581607
375 4 0.25755 0.947328 0.645256
376 2 0.987786 0.903808 0.675232
377 4 0.954373 0.965487 0.63233
378 4 0.929892 0.846651 0.710664
379 1 0.115437 0.62484 0.508248
380 2 0.013584 0.625272 0.494029
381 3 0.993891 0.573923 0.454151
382 3 0.969116 0.660683 0.528298
383 2 0.178462 0.568908 0.466253
384 3 0.253294 0.586154 0.480985
385 3 0.140873 0.574637 0.424881
386 1 0.15381 0.664677 0.565761
387 2 0.0879431 0.700322 0.620795
388 4 0.11997 0.681615 0.676564
389 4 0.00801632 0.74877 0.605122
390 2 0.261754 0.679417 0.579366
391 4 0.285842 0.737019 0.629589
392 4 0.323613 0.640334 0.542289
393 1 0.837526 0.598411 0.753545
394 2 0.735944 0.621439 0.752991
395 3 0.722197 0.667761 0.711591
396 3 0.710401 0.612979 0.797377
397 2 0.898712 0.622415 0.702339
398 3 0.982433 0.616684 0.706422
399 3 0.854607 0.621293 0.659515
400 1 0.885768 0.56491 0.81151
401 2 0.831757 0.536084 0.869465
402 4 0.876154 0.554194 0.924526
403 4 0.742176 0.505227 0.863597
404 2 0.996495 0.561214 0.816828
405 4 0.0334218 0.512142 0.864465
406 4 0.0507149 0.586004 0.76931
407 1 0.899582 0.868243 0.987772
408 2 0.00109814 0.863628 0.00474322
409 3 0.00902604 0.897467 0.0526272
410 3 0.0424549 0.818983 0.970103
411 2 0.830192 0.92245 0.0261389
412 3 0.759628 0.929815 0.00618086
413 3 0.863337 0.938624 0.0672141
414 1 0.859157 0.827096 0.930568
415 2 0.926592 0.78717 0.879602
416 4 0.88563 0.772457 0.825655
417 4 0.0181149 0.771784 0.89177
418 2 0.751917 0.810142 0.918703
419 4 0.725123 0.753001 0.871208
420 4 0.688774 0.851853 0.957111
421 1 0.645091 0.88953 0.739553
422 2 0.745593 0.867393 0.744331
423 3 0.764478 0.843222 0.790985
424 3 0.780666 0.857549 0.700456
425 2 0.579167 0.864012 0.789283
426 3 0.502618 0.885744 0.776278
427 3 0.62404 0.852483 0.828614
428 1 0.603819 0.940536 0.686037
429 2 0.67115 0.970859 0.63345
430 4 0.638857 0.974684 0.576007
431 4 0.762088 0.9885 0.651332
432 2 0.496689 0.96559 0.675801
433 4 0.471977 0.00558322 0.621849
434 4 0.434964 0.945719 0.719261
435 1 0.602229 0.646444 0.50748
436 2 0.501827 0.621222 0.498649
437 3 0.488712 0.592474 0.45152
438 3 0.466105 0.63132 0.541345
439 2 0.674597 0.611431 0.463558
440 3 0.748115 0.607741 0.489415
441 3 0.644765 0.580111 0.423274
442 1 0.637574 0.691467 0.5656
443 2 0.565481 0.732608 0.610438
444 4 0.583223 0.72263 0.670481
445 4 0.488188 0.781791 0.587885
446 2 0.746452 0.698881 0.582671
447 4 0.766801 0.747627 0.634512
448 4 0.815327 0.67096 0.545156
ITEM: TIMESTEP
2000
ITEM: NUMBER OF ATOMS
448
ITEM: BOX BOUNDS xy xz yz pp pp pp