LAMMPS data file via write_data, version 15 Apr 2020, timestep = 80000

448 atoms
4 atom types

2.2293214053752131e-01 1.3656267859462272e+01 xlo xhi
-1.8861462187350320e-01 1.3463414621873289e+01 ylo yhi
1.7012077743939216e+00 2.0978702583906433e+01 zlo zhi
-3.7979894224142975e-02 -1.7966381388553445e+00 6.8772594609571011e-02 xy xz yz

Masses

1 12.0107
2 14.0067
3 1.00794
4 15.9994

Atoms # full

1 1 1 3.0453653370779704e-01 4.3608609242130729e+00 1.2708472896992939e+00 6.7049223286020219e+00 0 0 0
2 1 2 -4.5338665739912382e-01 2.9945646897784881e+00 1.4166444021531852e+00 6.4361967506411597e+00 0 0 0
3 1 3 3.5865737861377456e-01 2.6700239305478712e+00 2.0060790561966124e+00 5.6105262441661896e+00 0 0 0
4 1 3 3.7677283423688507e-01 2.4316747210692027e+00 1.0953976855417595e+00 7.3114926626427037e+00 0 0 0
5 1 2 -4.5556953815542606e-01 5.2737073426550687e+00 1.7176467934196438e+00 5.7411913114845126e+00 0 0 0
6 1 3 3.7930580676299991e-01 6.2386293714642251e+00 1.6195346730075080e+00 6.1071720120156847e+00 0 0 0
7 1 3 3.7773562781592779e-01 4.8875529782017733e+00 2.0802793639930903e+00 4.8667863447970507e+00 0 0 0
8 1 1 2.1624032315539485e-02 4.8235797264606326e+00 6.4179553932465039e-01 7.9167358124154426e+00 0 0 0
9 1 2 2.7726956306740475e-01 3.8222124112416678e+00 1.3877950377583848e-01 8.9306154579144881e+00 0 0 0
10 1 4 -3.8096346211014154e-01 4.0563218579282090e+00 4.3251321400221532e-01 1.0154116515498050e+01 0 0 0
11 1 4 -3.2713198926697939e-01 2.7920215422444019e+00 1.3090104220341036e+01 8.5102708237123572e+00 0 -1 0
12 1 2 2.5397278057336165e-01 6.2104900296015302e+00 2.3684151462095326e-01 8.1345210100720937e+00 0 0 0
13 1 4 -3.4572558014806432e-01 6.4301455588100564e+00 1.3081840738474298e+01 9.0801664963870046e+00 0 -1 0
14 1 4 -3.9597324185153016e-01 7.1494504270534041e+00 8.3519467603213982e-01 7.4421076458675657e+00 0 0 0
15 1 1 2.9667579627970947e-01 4.7385986537647353e+00 4.6230469434971688e+00 1.0893280921148216e+01 0 0 0
16 1 2 -4.4212970723138578e-01 6.0565284612585444e+00 4.8281925378178423e+00 1.1295172225387656e+01 0 0 0
17 1 3 3.5712499901894745e-01 6.0695224891708000e+00 5.5146183220717084e+00 1.2071384761148678e+01 0 0 0
18 1 3 3.8929889661595024e-01 6.7402539407213515e+00 4.4893296212863225e+00 1.0594337241638785e+01 0 0 0
19 1 2 -4.0074948564755281e-01 3.7373292217534044e+00 5.2019710280260965e+00 1.1697592445785860e+01 0 0 0
20 1 3 3.8466984558997341e-01 2.7266722483828132e+00 5.1636347122317918e+00 1.1193722711367595e+01 0 0 0
21 1 3 3.6187225309777615e-01 4.1630110007224452e+00 5.5759985222965396e+00 1.2607012842749697e+01 0 0 0
22 1 1 3.3624401500244268e-02 4.3782851798017335e+00 3.9213570656413319e+00 9.7275074538315351e+00 0 0 0
23 1 2 2.7560992895483433e-01 5.4317111897175803e+00 3.5205994227580617e+00 8.7138033416288181e+00 0 0 0
24 1 4 -3.7035666781245385e-01 5.1596477411136190e+00 3.7508847825320069e+00 7.4844152682781200e+00 0 0 0
25 1 4 -3.6734553174151430e-01 6.5714977273569470e+00 3.0913080479352142e+00 9.1177602674470926e+00 0 0 0
26 1 2 2.5320382255844370e-01 2.9403438803997579e+00 3.6169962862151874e+00 9.4320455292507042e+00 0 0 0
27 1 4 -3.9963564254882145e-01 2.7641108881060030e+00 2.7169567063138009e+00 8.5377910035490974e+00 0 0 0
28 1 4 -4.0264944363947619e-01 1.9880769194959538e+00 4.1014715332676479e+00 1.0155844631328341e+01 0 0 0
29 1 1 2.8073331502637650e-01 1.9240779258417087e+00 5.2229879694014860e+00 6.1995962201185764e+00 0 0 0
30 1 2 -4.4028578171759469e-01 3.2675813064988790e+00 4.9524466190241601e+00 6.4723977336720475e+00 0 0 0
31 1 3 3.4923478073445430e-01 3.2940161035474476e+00 4.2151988854529510e+00 7.2678275687463403e+00 0 0 0
32 1 3 3.9743841751212267e-01 3.9449407598740298e+00 5.2149514317245815e+00 5.7466076898196041e+00 0 0 0
33 1 2 -4.0328816120563316e-01 9.5259247789346191e-01 4.8276126478543508e+00 7.1453283573844306e+00 0 0 0
34 1 3 3.9114957116272592e-01 -3.7094399693341690e-02 5.0029211062191576e+00 6.7779968474270555e+00 0 0 0
35 1 3 3.6211552362028926e-01 1.4061469118777543e+00 4.2284374670829354e+00 7.9325072537554453e+00 0 0 0
36 1 1 4.0828701402825504e-02 1.5268386149358522e+00 5.8933511944533636e+00 4.9988607901597941e+00 0 0 0
37 1 2 2.6896264226389643e-01 2.5870007553775536e+00 6.1631710529786741e+00 3.9469921869345628e+00 0 0 0
38 1 4 -3.3194894093732380e-01 2.1824104302601874e+00 6.1555160534755933e+00 2.7131138664450747e+00 0 0 0
39 1 4 -3.4983489500661979e-01 3.7868257883891037e+00 6.4348390543527216e+00 4.2870092992524107e+00 0 0 0
40 1 2 2.9135990066522749e-01 1.2379173441810420e-01 6.2570305237183677e+00 4.7202573461467967e+00 0 0 0
41 1 4 -4.1700778892736129e-01 1.3448333540298290e+01 7.0057296158838112e+00 3.6651590640534888e+00 0 0 0
42 1 4 -3.9523797934556743e-01 1.2630879273942336e+01 5.7797614260792392e+00 5.5110732544846126e+00 0 0 0
43 1 1 3.0775235373889848e-01 1.5496862420401867e+00 1.7851625186372515e+00 1.9852169323640640e+00 0 0 0
44 1 2 -4.2190630402927676e-01 1.3601957752479285e+01 1.6079042606101372e+00 1.7688246892263790e+00 0 0 0
45 1 3 3.6496211830396891e-01 1.1607680613023089e+01 1.0660815547229927e+00 2.0141672390514508e+01 0 0 0
46 1 3 3.8754551425002265e-01 1.3046879236237302e+01 1.8003091591150964e+00 2.6423084555145575e+00 0 0 0
47 1 2 -4.3649399220482754e-01 6.9517097853030219e-01 1.4107763492203924e+00 2.0327520789010062e+01 0 0 0
48 1 3 3.8517875370719240e-01 1.6939489646245771e+00 1.3657015348474404e+00 2.0777126329557657e+01 0 0 0
49 1 3 3.7459260796104416e-01 3.1466135412080942e-01 1.0069561052486380e+00 1.9514840974186683e+01 0 0 0
50 1 1 4.2250093949856043e-02 1.9816101696792001e+00 2.3570007471025054e+00 3.2098826023773546e+00 0 0 0
51 1 2 2.7006580711518802e-01 9.4446254871368751e-01 2.9396242099918344e+00 4.1644127787460654e+00 0 0 0
52 1 4 -3.8996320873067647e-01 1.0805820250286569e+00 2.7568815784188057e+00 5.4084130328419695e+00 0 0 0
53 1 4 -3.0158713025100564e-01 1.3424286847852169e+01 3.5628169082589793e+00 3.5756069153701660e+00 0 0 0
54 1 2 2.4085702293487349e-01 3.4081095868295703e+00 2.6536485001717676e+00 3.5090736679114833e+00 0 0 0
55 1 4 -3.7959307888683219e-01 3.6071911902066218e+00 3.5291373319305310e+00 4.4201021127477507e+00 0 0 0
56 1 4 -3.9105021925568462e-01 4.3606475764447143e+00 2.1478757553382812e+00 2.8033827076087650e+00 0 0 0
57 1 1 3.0043325210406574e-01 1.1156495089264382e+01 1.3719681348149140e+00 6.9316909847938160e+00 0 0 0
58 1 2 -4.4305717071009276e-01 9.8126282548893400e+00 1.7187294177959340e+00 6.7446399657790455e+00 0 0 0
59 1 3 3.5515145654113073e-01 9.6292367190339263e+00 2.1172623333885885e+00 5.7558003988643556e+00 0 0 0
60 1 3 3.7454610834832541e-01 9.0936683460172585e+00 1.2349558908263993e+00 7.3972946940107152e+00 0 0 0
61 1 2 -4.2545964947584075e-01 1.2117205940274737e+01 1.7449144135824601e+00 5.9647256695210347e+00 0 0 0
62 1 3 3.8177653502223130e-01 1.3103648218068475e+01 1.4706311920847832e+00 6.2422750526650592e+00 0 0 0
63 1 3 3.7515665521012337e-01 1.1693501959632652e+01 1.9485819610362638e+00 5.0422428781773991e+00 0 0 0
64 1 1 2.0894346482081147e-02 1.1516587725682552e+01 5.6460054955291161e-01 8.0533346959388901e+00 0 0 0
65 1 2 2.6261988863477026e-01 1.0496131130281492e+01 1.1139788150817836e-01 9.0397402535415772e+00 0 0 0
66 1 4 -3.5160217594379689e-01 1.0726296116075186e+01 4.0426035995536547e-01 1.0256441354581826e+01 0 0 0
67 1 4 -3.5614130391999638e-01 9.3191710005229513e+00 1.3277078455547844e+01 8.6549676511978220e+00 0 -1 0
68 1 2 2.7346579596987880e-01 1.2956108135376837e+01 2.5459833112062663e-01 8.3207114228192172e+00 0 0 0
69 1 4 -3.3756438669240202e-01 -3.3305498368357056e-01 1.3152993310793200e+01 9.3465682675998689e+00 0 -1 0
70 1 4 -3.8315909616991595e-01 4.8933134826028246e-01 5.9564953759398642e-01 7.5542676785634999e+00 0 0 0
71 1 1 2.9097463289279052e-01 1.1568601918965395e+01 4.5889098281099088e+00 1.1155627300912533e+01 0 0 0
72 1 2 -4.5149445122849735e-01 -4.7926856727014255e-01 4.7478850451852539e+00 1.1342896916427550e+01 0 0 0
73 1 3 3.6921140817418552e-01 -2.4125678742088164e-01 5.3128937984919737e+00 1.2213632955696662e+01 0 0 0
74 1 3 3.8797558724787712e-01 1.3065435793236713e-02 4.6579626643663721e+00 1.0440658022083459e+01 0 0 0
75 1 2 -4.0544232054064516e-01 1.0684818789638586e+01 4.9505281599674689e+00 1.2211659932198769e+01 0 0 0
76 1 3 3.8001611704422655e-01 9.6653588988988002e+00 4.9862239795650947e+00 1.1745683185810160e+01 0 0 0
77 1 3 3.7039102949278485e-01 1.1038279716585668e+01 5.6127825108228571e+00 1.2912979183891995e+01 0 0 0
78 1 1 3.0068235168473130e-02 1.1134747243566652e+01 3.9273467139014508e+00 9.9772640842784099e+00 0 0 0
79 1 2 2.7405765198718868e-01 1.2121546870862479e+01 3.4904088093772594e+00 8.9372252482462269e+00 0 0 0
80 1 4 -3.6940164218593941e-01 1.1831017752049750e+01 3.8335579303228151e+00 7.7352011528943541e+00 0 0 0
81 1 4 -3.6556883795897249e-01 -1.5881817419770405e-01 3.0208810064828757e+00 9.2329833339244445e+00 0 0 0
82 1 2 2.7186268319217871e-01 9.6832370115013973e+00 3.6068230525403151e+00 9.8156409549355903e+00 0 0 0
83 1 4 -3.8143655668454196e-01 9.3694754169639456e+00 2.8301887324803876e+00 8.8411477444693354e+00 0 0 0
84 1 4 -3.7422180845185338e-01 8.8078595818608036e+00 4.1796519498750300e+00 1.0590525335586317e+01 0 0 0
85 1 1 2.6084591765573634e-01 8.6892110524393082e+00 5.2233406483310114e+00 6.2909488749442497e+00 0 0 0
86 1 2 -4.2816135800759147e-01 1.0087581618972067e+01 5.1041864108160615e+00 6.5536961261348772e+00 0 0 0
87 1 3 3.5037667313318460e-01 1.0184135532096420e+01 4.3714650467895169e+00 7.3661597430600816e+00 0 0 0
88 1 3 3.7615569270999022e-01 1.0678942889824226e+01 5.4286959353715041e+00 5.7198054491966417e+00 0 0 0
89 1 2 -3.5791608088695570e-01 7.7555360572091558e+00 4.6405499230717950e+00 7.1788795783447350e+00 0 0 0
90 1 3 3.8435472250741592e-01 6.7158940455444585e+00 4.5315801823143138e+00 6.5518789793877286e+00 0 0 0
91 1 3 3.5295429707420006e-01 8.2684310404069929e+00 3.9016106938145700e+00 7.5861955074426284e+00 0 0 0
92 1 1 4.2843617726537969e-02 8.2460349093877596e+00 5.9427046991399957e+00 5.1577763339894922e+00 0 0 0
93 1 2 2.7626148972521480e-01 9.2594595662797889e+00 6.4682480712241022e+00 4.1429228510528775e+00 0 0 0
94 1 4 -3.8116028339622560e-01 8.9772375623595657e+00 6.3297897264904126e+00 2.9113219442531992e+00 0 0 0
95 1 4 -3.7660529458126224e-01 1.0298333655948506e+01 7.0744064532404591e+00 4.5850812184422782e+00 0 0 0
96 1 2 2.5785262321768021e-01 6.8122264398932710e+00 6.2106519406344303e+00 4.9673025633701435e+00 0 0 0
97 1 4 -3.8326766843815202e-01 6.5154495214680672e+00 7.1763340525486177e+00 4.1878313761007657e+00 0 0 0
98 1 4 -3.8647766483403645e-01 5.9424364010147590e+00 5.6280372890830153e+00 5.7629796557019137e+00 0 0 0
99 1 1 3.1733026381758028e-01 8.2844626091151934e+00 1.7005812183376623e+00 2.0478083835548144e+00 0 0 0
100 1 2 -4.6096993331167468e-01 6.9010902339822078e+00 1.5419369601814872e+00 1.9013957853315433e+00 0 0 0
101 1 3 3.6998805975205007e-01 4.8450244595792196e+00 1.1593205043376171e+00 2.0245656234215840e+01 0 0 0
102 1 3 3.8032514626400282e-01 6.3546031370903782e+00 1.7525376903970988e+00 2.7418079095913157e+00 0 0 0
103 1 2 -4.2838920016833593e-01 7.3316691664126452e+00 1.3880608994275110e+00 2.0302417566894668e+01 0 0 0
104 1 3 3.8539516389128442e-01 8.3770596739405878e+00 1.7303365741405525e+00 2.0425794965885387e+01 0 0 0
105 1 3 3.6701676970008623e-01 6.9463134418700134e+00 6.9735307526681711e-01 1.9602692388510178e+01 0 0 0
106 1 1 3.1849040238349648e-02 8.7790145713055328e+00 2.4185779371848888e+00 3.1874498794151354e+00 0 0 0
107 1 2 2.7325709758117656e-01 7.7999888037929530e+00 2.9602182384476068e+00 4.2412839923074461e+00 0 0 0
108 1 4 -4.3216409975623166e-01 8.0160479883085323e+00 2.7897205837008783e+00 5.4760139964956611e+00 0 0 0
109 1 4 -3.5611547074858757e-01 6.7809153832647526e+00 3.5206225996754941e+00 3.7058184785338626e+00 0 0 0
110 1 2 2.7410075446630244e-01 1.0218942411305655e+01 2.7551406869281516e+00 3.3421410231827355e+00 0 0 0
111 1 4 -3.5613258746548271e-01 1.0606844013727754e+01 3.4868754694109092e+00 4.3158463344334894e+00 0 0 0
112 1 4 -3.7129503426104227e-01 1.0999656335129067e+01 2.4722833678793070e+00 2.3514279830296840e+00 0 0 0
113 1 1 2.8456041751833355e-01 4.2064649508975371e+00 7.9226454767857550e+00 6.7365932458926698e+00 0 0 0
114 1 2 -4.4649221995247973e-01 2.8177422373396475e+00 8.1054809329086002e+00 6.5287420791577624e+00 0 0 0
115 1 3 3.4070517396973904e-01 2.6859569957406353e+00 8.9316438014178097e+00 5.7708216373817294e+00 0 0 0
116 1 3 3.7729340182012788e-01 2.2446853853319912e+00 7.5764911252888574e+00 7.1846361844764717e+00 0 0 0
117 1 2 -4.3057214802509836e-01 5.0983292623834418e+00 8.4027073801762633e+00 5.7931724488272627e+00 0 0 0
118 1 3 3.9586110468403907e-01 6.1140093242618656e+00 8.1732714213470832e+00 6.1504768225180699e+00 0 0 0
119 1 3 3.7230039209971910e-01 4.7169999761909125e+00 8.9221011671202426e+00 5.0469556590246647e+00 0 0 0
120 1 1 3.9900740746619971e-02 4.6434926841639976e+00 7.2657406137483926e+00 7.9198367632945574e+00 0 0 0
121 1 2 2.6120988372250042e-01 3.6130569158900467e+00 6.8172441483752273e+00 8.9340403842332048e+00 0 0 0
122 1 4 -3.5731019618432119e-01 3.8662404967298261e+00 7.2060125486831881e+00 1.0125168581868271e+01 0 0 0
123 1 4 -3.5180911990735797e-01 2.5891431237536988e+00 6.1544709577849224e+00 8.5142488518652222e+00 0 0 0
124 1 2 2.7438757930895752e-01 6.0925655358627360e+00 7.0497563232548535e+00 8.2053526352108506e+00 0 0 0
125 1 4 -3.5743749615268883e-01 6.2918135725097191e+00 6.3528169418114935e+00 9.2767765020175474e+00 0 0 0
126 1 4 -3.6833180724741021e-01 6.9847843993384906e+00 7.4547708219186983e+00 7.3717349988388738e+00 0 0 0
127 1 1 2.7822325217105270e-01 4.8337786821091999e+00 1.1387956690316816e+01 1.0819225784482038e+01 0 0 0
128 1 2 -4.4406228086676686e-01 6.2238056114687899e+00 1.1524714389150931e+01 1.0988450200253826e+01 0 0 0
129 1 3 3.5982165399507487e-01 6.5316617694860168e+00 1.2245073869845591e+01 1.1748478501263495e+01 0 0 0
130 1 3 3.7078010338783585e-01 6.7652938128052078e+00 1.1055959736271317e+01 1.0242410086952171e+01 0 0 0
131 1 2 -3.7990406673418914e-01 3.9427581594977510e+00 1.1968619123343796e+01 1.1732119868660311e+01 0 0 0
132 1 3 3.9126014593056163e-01 2.9529573022378850e+00 1.2018091392563493e+01 1.1167653198685674e+01 0 0 0
133 1 3 3.6881528156005039e-01 4.5103070100677654e+00 1.2154811594026061e+01 1.2685633194971114e+01 0 0 0
134 1 1 4.0239360435145657e-02 4.3218904532932712e+00 1.0630757831655025e+01 9.7437794891337610e+00 0 0 0
135 1 2 2.6350114742736769e-01 5.3248357853935548e+00 1.0029282752619944e+01 8.7440434912399780e+00 0 0 0
136 1 4 -3.3455376780660973e-01 5.1561086497465665e+00 1.0399262139471883e+01 7.5492064014095730e+00 0 0 0
137 1 4 -3.8762329996856965e-01 6.3846245191444915e+00 9.4374570109208857e+00 9.1618852962087054e+00 0 0 0
138 1 2 2.6034949180203548e-01 2.8918391832459793e+00 1.0470217781699230e+01 9.3804524834226779e+00 0 0 0
139 1 4 -3.6964941489931724e-01 2.6157485669753719e+00 9.7186720614309507e+00 8.3940988576767595e+00 0 0 0
140 1 4 -4.0676061390887336e-01 2.0418809760360572e+00 1.1135161307060942e+01 1.0117504714920031e+01 0 0 0
141 1 1 2.6183972142903805e-01 1.9649884332840744e+00 1.2104744937749315e+01 6.2223507043490658e+00 0 0 0
142 1 2 -4.1005600813558957e-01 3.3641161558343819e+00 1.1870767802984457e+01 6.4909481454785549e+00 0 0 0
143 1 3 3.5576271303669704e-01 3.3710073924379871e+00 1.0890158402427113e+01 6.8690049739908456e+00 0 0 0
144 1 3 3.6990796953251959e-01 3.9918336750463776e+00 1.2383886992325724e+01 5.7879569366297821e+00 0 0 0
145 1 2 -4.0564147229528058e-01 9.8955389494223678e-01 1.1494360537467015e+01 7.0725413642572423e+00 0 0 0
146 1 3 3.9457788419400835e-01 2.2189963711563787e-02 1.1579292960208029e+01 6.6233664306033821e+00 0 0 0
147 1 3 3.8188333321978690e-01 1.4723201879451167e+00 1.1408892818033163e+01 7.9977718885397380e+00 0 0 0
148 1 1 3.1178071654775420e-02 1.5727395795137080e+00 1.2811051880205138e+01 5.0615523785718946e+00 0 0 0
149 1 2 2.7332617081666288e-01 2.5365786658647571e+00 1.3157121461669552e+01 3.9502639260626715e+00 0 0 0
150 1 4 -3.9587767541042224e-01 2.1538844808764406e+00 1.3011392193295364e+01 2.7213898463074626e+00 0 0 0
151 1 4 -3.6500377061170652e-01 3.7185127114259897e+00 -4.1416343684672702e-02 4.2692707382223283e+00 0 1 0
152 1 2 2.6158569812171872e-01 1.4617780718510612e-01 1.3171771667397170e+01 4.7897213501049087e+00 0 0 0
153 1 4 -3.8792540077727217e-01 2.0371721112395817e-02 4.5867602015343967e-01 3.9082839683389343e+00 1 1 0
154 1 4 -4.2504877501755700e-01 1.2671747143384056e+01 1.2587949880588203e+01 5.4621420012048345e+00 0 0 0
155 1 1 2.9794690632296500e-01 1.4242836163960118e+00 8.6435220282939937e+00 2.0470102829607471e+00 0 0 0
156 1 2 -4.4564378987110148e-01 1.3484901907288569e+01 8.4506504294471014e+00 1.7432210266436363e+00 0 0 0
157 1 3 3.5742866760953784e-01 1.1533978696086056e+01 7.8885757531879168e+00 2.0190526373827275e+01 0 0 0
158 1 3 3.8005995159429617e-01 1.2950086484839989e+01 8.6290969544908549e+00 2.6325320204976763e+00 0 0 0
159 1 2 -4.2938082289040908e-01 5.9554602169103688e-01 8.1315356290591723e+00 2.0459640663430459e+01 0 0 0
160 1 3 3.9023250538758025e-01 1.5913192000531333e+00 8.2848418408419011e+00 2.0697043120201542e+01 0 0 0
161 1 3 3.6011334482873875e-01 1.9233311515144158e-01 7.8480791211595946e+00 1.9515820077663708e+01 0 0 0
162 1 1 3.1159851438216722e-02 1.7831995826375366e+00 9.3105309421823979e+00 3.2277058382551509e+00 0 0 0
163 1 2 2.6109223476236332e-01 7.6791079181512489e-01 9.8382397753926405e+00 4.2170998632972587e+00 0 0 0
164 1 4 -3.6825350010344771e-01 1.0619670963355357e+00 9.6593650772864201e+00 5.4455038835226119e+00 0 0 0
165 1 4 -3.6033778946594464e-01 1.3065574411988360e+01 1.0273944701439325e+01 3.8120430408609129e+00 0 0 0
166 1 2 2.3810867559549945e-01 3.2077992027671742e+00 9.5392555708076880e+00 3.6062501720189353e+00 0 0 0
167 1 4 -3.6999734121763561e-01 3.4780582376098237e+00 1.0438081063524852e+01 4.5087502842231668e+00 0 0 0
168 1 4 -3.6882009974001650e-01 4.1050320210615414e+00 8.9742376188940831e+00 2.8976479842864111e+00 0 0 0
169 1 1 2.8689350425432314e-01 1.0977699724828309e+01 7.9181829956490866e+00 6.8691733635674614e+00 0 0 0
170 1 2 -4.2635529058181237e-01 9.5900421180102295e+00 8.2472938881948039e+00 6.6525734852535647e+00 0 0 0
171 1 3 3.7774784934585542e-01 9.5367422048426622e+00 8.9351558929319204e+00 5.9154665701895111e+00 0 0 0
172 1 3 3.7668246717449733e-01 9.0480484316065777e+00 8.0133246272455221e+00 7.5261397404942132e+00 0 0 0
173 1 2 -4.3419358237497757e-01 1.1935306408255991e+01 8.2622762665778779e+00 5.9142047325725491e+00 0 0 0
174 1 3 3.8135567066068510e-01 1.2885942925053824e+01 8.2874996221932058e+00 6.3737080312510583e+00 0 0 0
175 1 3 3.8218330497858488e-01 1.1595565878067465e+01 8.6183668524373882e+00 5.0224322631398941e+00 0 0 0
176 1 1 2.8551159906574589e-02 1.1344779479024306e+01 7.2470186596524702e+00 8.0354729199775274e+00 0 0 0
177 1 2 2.6765457612410531e-01 1.0276685174629286e+01 6.7724452657111218e+00 9.0806109800991504e+00 0 0 0
178 1 4 -3.7641869740181777e-01 1.0522356958829329e+01 6.9909341583926272e+00 1.0304621692000710e+01 0 0 0
179 1 4 -3.2612770524274420e-01 9.1912749828480500e+00 6.3071499526769301e+00 8.6295758957619881e+00 0 0 0
180 1 2 2.7193128679771333e-01 1.2762234589167713e+01 6.9601057290926871e+00 8.3268603126153025e+00 0 0 0
181 1 4 -3.7407667048256149e-01 -4.5714459554751868e-01 6.3068992838277556e+00 9.4249091846449886e+00 0 0 0
182 1 4 -3.9442895995226773e-01 2.8697046211973642e-01 7.3643634135249192e+00 7.5423749577668842e+00 0 0 0
183 1 1 3.0305819196505512e-01 1.1503424778274180e+01 1.1538239099011488e+01 1.1011625195644697e+01 0 0 0
184 1 2 -4.3145284647442061e-01 -5.4793685393036418e-01 1.1679644157077753e+01 1.1372068300478634e+01 0 0 0
185 1 3 3.3711409754215643e-01 -3.8445535877077019e-01 1.2273127721062474e+01 1.2291599321523154e+01 0 0 0
186 1 3 3.6607301419992183e-01 1.7146526759716985e-01 1.1166978237390394e+01 1.0754254359935507e+01 0 0 0
187 1 2 -4.3692939540645831e-01 1.0564925576623187e+01 1.2081375884359849e+01 1.1908096180435750e+01 0 0 0
188 1 3 3.9490704806649474e-01 9.5321346446706343e+00 1.1971259589258212e+01 1.1541578979501775e+01 0 0 0
189 1 3 3.7178062387442606e-01 1.0911173799281329e+01 1.2641781729823339e+01 1.2664290142029865e+01 0 0 0
190 1 1 2.2041470210752680e-02 1.1165134719006106e+01 1.0795027548807871e+01 9.8807259856269383e+00 0 0 0
191 1 2 2.8314371049622311e-01 1.2185111253907730e+01 1.0332752684599836e+01 8.8371694539461636e+00 0 0 0
192 1 4 -3.9230375760175967e-01 1.1987557350011953e+01 1.0520089674454795e+01 7.5694158069575588e+00 0 0 0
193 1 4 -3.6625977438521901e-01 -2.8502697313599595e-01 9.6225675127685566e+00 9.2698734126405480e+00 0 0 0
194 1 2 2.4419316538157051e-01 9.7498513114719785e+00 1.0482742984768961e+01 9.6139660061745431e+00 0 0 0
195 1 4 -3.6718368882244867e-01 9.4642704448823149e+00 9.6389721387976177e+00 8.6848101735331653e+00 0 0 0
196 1 4 -4.0853572239714936e-01 8.8268890589657225e+00 1.0997994569597305e+01 1.0374731104281457e+01 0 0 0
197 1 1 2.9676882852101305e-01 8.9261675610708373e+00 1.2096540653237451e+01 6.3491895758528543e+00 0 0 0
198 1 2 -4.7789950759780497e-01 1.0310084007011998e+01 1.2025125909428494e+01 6.4546449582547059e+00 0 0 0
199 1 3 3.6376188034263779e-01 1.0571514348638129e+01 1.1368459267713602e+01 7.2574759640458355e+00 0 0 0
200 1 3 3.8949349818570450e-01 1.0802903764234932e+01 1.2451735060836349e+01 5.7426033655785469e+00 0 0 0
201 1 2 -4.3667627830969363e-01 8.0855844303385958e+00 1.1431002993101531e+01 7.3011648202251731e+00 0 0 0
202 1 3 3.8920390191749343e-01 7.1166346714516813e+00 1.1434026417255959e+01 6.8816053728520776e+00 0 0 0
203 1 3 3.7631403968197391e-01 8.3836264220953804e+00 1.1390220691267954e+01 8.2737895621567041e+00 0 0 0
204 1 1 1.8297176009541841e-02 8.4485004561649983e+00 1.2907964365901117e+01 5.3022002389034828e+00 0 0 0
205 1 2 2.7799918477454638e-01 9.3760353916462229e+00 1.3455668817026668e+01 4.2022835454327456e+00 0 0 0
206 1 4 -3.6424084276221114e-01 9.2050183208196774e+00 1.3056694303030209e+01 3.0151282377407846e+00 0 0 0
207 1 4 -3.9874119110705880e-01 1.0467712976894463e+01 3.9590242448735380e-01 4.6125484194748738e+00 0 1 0
208 1 2 2.8957284126966665e-01 6.9947398908697460e+00 1.3004735742019115e+01 5.0322823837641515e+00 0 0 0
209 1 4 -3.8657778937328979e-01 6.6617214230412838e+00 4.0929738981560493e-02 4.0040933467640825e+00 0 1 0
210 1 4 -3.5983489824108156e-01 6.1837579129417177e+00 1.2455124133373138e+01 5.8703114971077035e+00 0 0 0
211 1 1 2.8638775742532935e-01 8.1443222683592982e+00 8.7236714491478597e+00 2.0109934407825949e+00 0 0 0
212 1 2 -4.5315774113960477e-01 6.8073094520096369e+00 8.3314164276755687e+00 1.8897205285949927e+00 0 0 0
213 1 3 3.6273100794174556e-01 4.8469945391637674e+00 7.9589022871888542e+00 2.0204869113563177e+01 0 0 0
214 1 3 3.7693805690557108e-01 6.2107900081212186e+00 8.5926935438526808e+00 2.7370946234772733e+00 0 0 0
215 1 2 -3.9186405637109512e-01 7.2450894540412758e+00 8.4407138496434388e+00 2.0267007318730830e+01 0 0 0
216 1 3 3.6695208518646771e-01 8.3539922555772748e+00 8.7700668529707073e+00 2.0606751500149496e+01 0 0 0
217 1 3 3.6845514352442388e-01 6.7304025688354594e+00 7.9391790136512395e+00 1.9500768524357508e+01 0 0 0
218 1 1 3.9538170528632580e-02 8.6120053114565902e+00 9.3333998546214740e+00 3.2212305066417590e+00 0 0 0
219 1 2 2.4634566291415683e-01 7.5721570893124817e+00 9.8186704872727883e+00 4.1929603343091220e+00 0 0 0
220 1 4 -3.3530189720847137e-01 7.8354269276757149e+00 9.5511986721205737e+00 5.4191927572146845e+00 0 0 0
221 1 4 -3.0374359230274123e-01 6.4746208976357194e+00 1.0420811197348518e+01 3.8256558634299171e+00 0 0 0
222 1 2 2.5273040352959369e-01 1.0037939621820090e+01 9.5225890426511732e+00 3.5268036650172876e+00 0 0 0
223 1 4 -3.5724410569535919e-01 1.0347183907105668e+01 1.0209416515116320e+01 4.5666064849462709e+00 0 0 0
224 1 4 -4.1182649876573885e-01 1.0940692500000532e+01 9.2049239000604146e+00 2.6192884042770554e+00 0 0 0
225 1 1 2.7599999144695148e-01 3.3143922812768229e+00 1.4503941099715540e+00 1.6495658477882191e+01 0 0 0
226 1 2 -4.3101043444644815e-01 1.9500645829931278e+00 1.5579397781087978e+00 1.6269858160579595e+01 0 0 0
227 1 3 3.7192929684975129e-01 1.6583817949055728e+00 2.3335927016319609e+00 1.5576608448009704e+01 0 0 0
228 1 3 3.7331568321243508e-01 1.4466104936187096e+00 1.0594476227000924e+00 1.7061892375661444e+01 0 0 0
229 1 2 -4.1470752517926152e-01 4.2592818172931253e+00 1.9876636782595338e+00 1.5577599311877137e+01 0 0 0
230 1 3 3.8388017601587321e-01 5.2628112709937929e+00 1.7003091217454338e+00 1.5932872368591374e+01 0 0 0
231 1 3 3.7336246252376454e-01 3.7845780049058000e+00 2.0000911855000831e+00 1.4669471444270505e+01 0 0 0
232 1 1 2.0561243258864055e-02 3.7375446419003895e+00 6.9632278792563040e-01 1.7617811703554572e+01 0 0 0
233 1 2 2.6818422695048638e-01 2.8196169209993016e+00 1.9201218772138418e-01 1.8695067249530812e+01 0 0 0
234 1 4 -3.9237710225817851e-01 3.2014911062589340e+00 3.5453168166580973e-01 1.9908556035746834e+01 0 0 0
235 1 4 -3.5051587736890999e-01 1.7266926704043877e+00 1.3206620387105470e+01 1.8341313142192682e+01 0 -1 0
236 1 2 2.8135700732809626e-01 5.1946668111859715e+00 3.0313252464340312e-01 1.7788313307493105e+01 0 0 0
237 1 4 -3.9094181318220711e-01 5.4145528796551394e+00 1.3221083184994901e+01 1.8786128104376044e+01 0 -1 0
238 1 4 -3.7670348399789921e-01 6.1073168878300619e+00 8.3441976972878207e-01 1.7050994711896109e+01 0 0 0
239 1 1 2.7697352865479102e-01 3.9520228253783163e+00 4.7997967780239454e+00 2.0784476904586757e+01 0 0 0
240 1 2 -4.2079198585132627e-01 5.3341666016109439e+00 5.0705337523048692e+00 2.0946946201200817e+01 0 0 0
241 1 3 3.4374692550134289e-01 7.2843819275660655e+00 5.6856024467335642e+00 2.5292650036494746e+00 0 0 0
242 1 3 3.7949087722591657e-01 5.7830368710717144e+00 4.6283728208669492e+00 2.0173733917948439e+01 0 0 0
243 1 2 -4.0437953253993575e-01 4.8485705727771000e+00 5.2456993523640261e+00 2.4428117978016557e+00 0 0 0
244 1 3 3.8876905088539682e-01 3.8404821059130660e+00 4.8511190385492489e+00 2.2326099321208366e+00 0 0 0
245 1 3 3.6470735791508152e-01 5.3553765936375797e+00 5.8100700470170006e+00 3.1797057924827534e+00 0 0 0
246 1 1 3.6227313330342813e-02 3.4676720506333369e+00 3.9498767870635714e+00 1.9746061288046359e+01 0 0 0
247 1 2 2.5061818230846422e-01 4.4381293857099946e+00 3.5106154174018847e+00 1.8683620466208438e+01 0 0 0
248 1 4 -3.5761321180662442e-01 4.2407266867020539e+00 3.9037156053598414e+00 1.7485116754022677e+01 0 0 0
249 1 4 -3.3444811884647818e-01 5.4248924418350644e+00 2.7650187819095220e+00 1.9045330139869577e+01 0 0 0
250 1 2 2.7161280561961026e-01 2.0276727405608801e+00 3.6600574151191587e+00 1.9437297781635380e+01 0 0 0
251 1 4 -3.8060865099236152e-01 1.7874669119355788e+00 2.9310456251925565e+00 1.8395583795396377e+01 0 0 0
252 1 4 -3.8114520964342341e-01 1.1909392524031754e+00 4.0272064936819074e+00 2.0337833533491175e+01 0 0 0
253 1 1 2.7489523579518366e-01 8.8083192031345292e-01 5.3816889716167298e+00 1.6084830701869642e+01 0 0 0
254 1 2 -4.5186305006351535e-01 2.2675265899892167e+00 5.1586798719368359e+00 1.6352210278796832e+01 0 0 0
255 1 3 3.6029641416367675e-01 2.4149091338013320e+00 4.7030072129593696e+00 1.7287779067679004e+01 0 0 0
256 1 3 3.8302790445879559e-01 2.8468118424865407e+00 5.4638323098477981e+00 1.5556620880687838e+01 0 0 0
257 1 2 -3.8049422705965269e-01 -5.2504261351604020e-02 4.8271095878771444e+00 1.6967069664279435e+01 0 0 0
258 1 3 3.6583744759418002e-01 -1.0810353797915742e+00 4.9620279272567300e+00 1.6349713985274519e+01 0 0 0
259 1 3 3.5972145877287487e-01 4.6461355726586850e-01 4.2663295963112242e+00 1.7682100739658278e+01 0 0 0
260 1 1 3.3342788699342235e-02 4.9221337402922694e-01 6.0599397974718032e+00 1.4884807924879169e+01 0 0 0
261 1 2 2.8550697504408867e-01 1.5231045177152578e+00 6.3837593710116884e+00 1.3834935895045810e+01 0 0 0
262 1 4 -3.6919199832102589e-01 1.2628853155996480e+00 6.0714343290857800e+00 1.2621025061047668e+01 0 0 0
263 1 4 -3.6107308143694761e-01 2.5444237656044937e+00 7.0909636517323626e+00 1.4189792249462966e+01 0 0 0
264 1 2 2.4265892174899822e-01 -9.0984071754795037e-01 6.2827385543622807e+00 1.4495422298797202e+01 0 0 0
265 1 4 -3.9989369610924164e-01 1.2382447867557312e+01 6.9814707062343011e+00 1.3439071130137746e+01 0 0 0
266 1 4 -3.9637488851090880e-01 1.1518392824201040e+01 5.6676195763410142e+00 1.5081055422832584e+01 0 0 0
267 1 1 2.4932120384539708e-01 4.9222630991678795e-01 1.8480973303541850e+00 1.1880309946812046e+01 0 0 0
268 1 2 -4.2179135927070788e-01 1.2572328652414479e+01 1.6026367262428598e+00 1.1532967641267021e+01 0 0 0
269 1 3 3.5157933029650162e-01 1.2513499129363224e+01 6.5150045223229203e-01 1.0908532866204911e+01 0 0 0
270 1 3 3.8472734941104259e-01 1.1996948433812525e+01 1.8898481007227623e+00 1.2291528627082428e+01 0 0 0
271 1 2 -3.9651603569916444e-01 1.4817704882149687e+00 1.3263873369880916e+00 1.0960783914355765e+01 0 0 0
272 1 3 3.7446905463437252e-01 2.4757046658967097e+00 1.6483686345697441e+00 1.1303349669201191e+01 0 0 0
273 1 3 3.5995026607092806e-01 1.0099604288032693e+00 1.6458625713551795e+00 1.0099449452251678e+01 0 0 0
274 1 1 3.3761755155346018e-02 9.0267556770653656e-01 2.5904966597932910e+00 1.3025076791330799e+01 0 0 0
275 1 2 2.4210396507972751e-01 -1.1705582598293329e-01 2.9698326498119862e+00 1.4007142385600231e+01 0 0 0
276 1 4 -3.9196068899441017e-01 1.0811066128852431e-01 2.9080650683881406e+00 1.5273972901852540e+01 0 0 0
277 1 4 -3.2964057171755101e-01 1.2190911687275237e+01 3.4749283681306191e+00 1.3545491206908858e+01 0 0 0
278 1 2 2.6090215396127048e-01 2.3230875691168191e+00 3.0081673883504263e+00 1.3271943745088196e+01 0 0 0