ITEM: TIMESTEP
0
ITEM: NUMBER OF ATOMS
336
ITEM: BOX BOUNDS xy xz yz pp pp pp
0.0000000000000000e+00 2.6364000320399999e+01 0.0000000000000000e+00
0.0000000000000000e+00 1.1574000358599999e+01 0.0000000000000000e+00
0.0000000000000000e+00 1.0708999633800000e+01 0.0000000000000000e+00
ITEM: ATOMS id type xs ys zs
1 1 0.0929903 0.356471 0.445049
2 1 0.90701 0.643529 0.554951
3 1 0.15701 0.643529 0.945049
4 1 0.34299 0.356471 0.054951
5 1 0.90701 0.856471 0.0549511
6 1 0.0929903 0.143529 0.945049
7 1 0.34299 0.143529 0.554951
8 1 0.15701 0.856471 0.445049
9 1 0.59299 0.356471 0.445049
10 1 0.40701 0.643529 0.554951
11 1 0.65701 0.643529 0.945049
12 1 0.84299 0.356471 0.0549511
13 1 0.40701 0.856471 0.0549511
14 1 0.59299 0.143529 0.945049
15 1 0.84299 0.143529 0.554951
16 1 0.65701 0.856471 0.445049
17 1 0.0242727 0.239952 0.339826
18 1 0.975727 0.760049 0.660174
19 1 0.225727 0.760049 0.839826
20 1 0.274273 0.239952 0.160175
21 1 0.975727 0.739952 0.160175
22 1 0.0242727 0.260049 0.839826
23 1 0.274273 0.260049 0.660174
24 1 0.225727 0.739952 0.339826
25 1 0.524273 0.239952 0.339825
26 1 0.475727 0.760048 0.660174
27 1 0.725727 0.760048 0.839826
28 1 0.774273 0.239952 0.160175
29 1 0.475727 0.739952 0.160175
30 1 0.524273 0.260048 0.839826
31 1 0.774273 0.260048 0.660174
32 1 0.725727 0.739952 0.339825
33 1 0.0747639 0.379981 0.209949
34 1 0.925236 0.620019 0.790051
35 1 0.175236 0.620019 0.709949
36 1 0.324764 0.379981 0.290051
37 1 0.925236 0.879981 0.290051
38 1 0.0747639 0.120019 0.709949
39 1 0.324764 0.120019 0.790051
40 1 0.175236 0.879981 0.209949
41 1 0.574764 0.379981 0.209949
42 1 0.425236 0.620019 0.790051
43 1 0.675236 0.620019 0.709949
44 1 0.824764 0.37998 0.290051
45 1 0.425236 0.87998 0.290051
46 1 0.574764 0.120019 0.709949
47 1 0.824764 0.120019 0.790051
48 1 0.675236 0.87998 0.209949
49 2 0.124318 0.290983 0.424076
50 2 0.875682 0.709017 0.575924
51 2 0.125682 0.709017 0.924076
52 2 0.374318 0.290983 0.075924
53 2 0.875682 0.790983 0.075924
54 2 0.124318 0.209017 0.924076
55 2 0.374318 0.209017 0.575924
56 2 0.125682 0.790983 0.424076
57 2 0.624318 0.290983 0.424076
58 2 0.375682 0.709017 0.575924
59 2 0.625682 0.709017 0.924076
60 2 0.874318 0.290983 0.075924
61 2 0.375682 0.790983 0.075924
62 2 0.624318 0.209017 0.924076
63 2 0.874318 0.209017 0.575924
64 2 0.625682 0.790983 0.424076
65 2 0.102713 0.409458 0.532151
66 2 0.897287 0.590542 0.467849
67 2 0.147287 0.590542 0.0321507
68 2 0.352713 0.409458 0.967849
69 2 0.897287 0.909458 0.967849
70 2 0.102713 0.0905424 0.0321507
71 2 0.352713 0.0905424 0.467849
72 2 0.147287 0.909458 0.532151
73 2 0.602713 0.409458 0.532151
74 2 0.397287 0.590542 0.467849
75 2 0.647287 0.590542 0.0321507
76 2 0.852713 0.409458 0.967849
77 2 0.397287 0.909458 0.967849
78 2 0.602713 0.0905424 0.0321507
79 2 0.852713 0.0905424 0.467849
80 2 0.647287 0.909458 0.532151
81 2 0.984036 0.205553 0.354507
82 2 0.015964 0.794447 0.645493
83 2 0.265964 0.794447 0.854507
84 2 0.234036 0.205553 0.145493
85 2 0.0159639 0.705553 0.145493
86 2 0.984036 0.294447 0.854507
87 2 0.234036 0.294447 0.645493
88 2 0.265964 0.705553 0.354507
89 2 0.484036 0.205553 0.354507
90 2 0.515964 0.794447 0.645493
91 2 0.765964 0.794447 0.854507
92 2 0.734036 0.205553 0.145493
93 2 0.515964 0.705553 0.145493
94 2 0.484036 0.294447 0.854507
95 2 0.734036 0.294447 0.645493
96 2 0.765964 0.705553 0.354507
97 2 0.0507441 0.164502 0.318049
98 2 0.949256 0.835498 0.681951
99 2 0.199256 0.835498 0.818049
100 2 0.300744 0.164502 0.181951
101 2 0.949256 0.664502 0.181951
102 2 0.0507441 0.335498 0.818049
103 2 0.300744 0.335498 0.681951
104 2 0.199256 0.664502 0.318049
105 2 0.550744 0.164502 0.318049
106 2 0.449256 0.835498 0.681951
107 2 0.699256 0.835498 0.818049
108 2 0.800744 0.164503 0.181951
109 2 0.449256 0.664503 0.181951
110 2 0.550744 0.335498 0.818049
111 2 0.800744 0.335498 0.681951
112 2 0.699256 0.664502 0.318049
113 2 0.10589 0.314338 0.186528
114 2 0.89411 0.685662 0.813472
115 2 0.14411 0.685662 0.686528
116 2 0.35589 0.314338 0.313472
117 2 0.89411 0.814338 0.313472
118 2 0.10589 0.185662 0.686528
119 2 0.35589 0.185662 0.813472
120 2 0.14411 0.814338 0.186528
121 2 0.60589 0.314338 0.186528
122 2 0.39411 0.685662 0.813472
123 2 0.64411 0.685662 0.686528
124 2 0.85589 0.314338 0.313472
125 2 0.39411 0.814338 0.313472
126 2 0.60589 0.185662 0.686528
127 2 0.85589 0.185662 0.813472
128 2 0.64411 0.814338 0.186528
129 2 0.0727585 0.448247 0.132508
130 2 0.927242 0.551753 0.867492
131 2 0.177242 0.551753 0.632508
132 2 0.322758 0.448247 0.367492
133 2 0.927242 0.948247 0.367492
134 2 0.0727585 0.0517534 0.632508
135 2 0.322758 0.0517534 0.867492
136 2 0.177242 0.948247 0.132508
137 2 0.572758 0.448247 0.132508
138 2 0.427242 0.551753 0.867492
139 2 0.677242 0.551753 0.632508
140 2 0.822758 0.448247 0.367492
141 2 0.427242 0.948247 0.367492
142 2 0.572758 0.0517534 0.632508
143 2 0.822758 0.0517534 0.867492
144 2 0.677242 0.948247 0.132508
145 3 0.0876631 0.432175 0.333149
146 3 0.912337 0.567825 0.666851
147 3 0.162337 0.567825 0.833149
148 3 0.337663 0.432175 0.166851
149 3 0.912337 0.932175 0.166851
150 3 0.0876631 0.0678248 0.833149
151 3 0.337663 0.0678248 0.666851
152 3 0.162337 0.932175 0.333149
153 3 0.587663 0.432175 0.333149
154 3 0.412337 0.567825 0.666851
155 3 0.662337 0.567825 0.833149
156 3 0.837663 0.432175 0.166851
157 3 0.412337 0.932175 0.166851
158 3 0.587663 0.0678248 0.833149
159 3 0.837663 0.0678248 0.666851
160 3 0.662337 0.932175 0.333149
161 3 0.046339 0.282105 0.461725
162 3 0.953661 0.717895 0.538275
163 3 0.203661 0.717895 0.961725
164 3 0.296339 0.282105 0.038275
165 3 0.953661 0.782105 0.038275
166 3 0.046339 0.217895 0.961725
167 3 0.296339 0.217895 0.538275
168 3 0.203661 0.782105 0.461725
169 3 0.546339 0.282105 0.461725
170 3 0.453661 0.717895 0.538275
171 3 0.703661 0.717895 0.961725
172 3 0.796339 0.282104 0.0382751
173 3 0.453661 0.782104 0.0382751
174 3 0.546339 0.217895 0.961725
175 3 0.796339 0.217895 0.538275
176 3 0.703661 0.782104 0.461725
177 3 0.0274189 0.308405 0.219699
178 3 0.972581 0.691595 0.780301
179 3 0.222581 0.691595 0.719699
180 3 0.277419 0.308405 0.2803
181 3 0.972581 0.808405 0.2803
182 3 0.0274189 0.191595 0.719699
183 3 0.277419 0.191595 0.780301
184 3 0.222581 0.808405 0.219699
185 3 0.527419 0.308405 0.2197
186 3 0.472581 0.691595 0.7803
187 3 0.722581 0.691595 0.719699
188 3 0.777419 0.308405 0.2803
189 3 0.472581 0.808405 0.2803
190 3 0.527419 0.191595 0.719699
191 3 0.777419 0.191595 0.7803
192 3 0.722581 0.808405 0.2197
193 3 0.115611 0.547815 0.335017
194 3 0.884389 0.452185 0.664983
195 3 0.134389 0.452185 0.835017
196 3 0.365611 0.547815 0.164983
197 3 0.884389 0.0478153 0.164983
198 3 0.115611 0.952185 0.835017
199 3 0.365611 0.952185 0.664983
200 3 0.134389 0.047815 0.335017
201 3 0.615611 0.547815 0.335017
202 3 0.384389 0.452185 0.664983
203 3 0.634389 0.452185 0.835017
204 3 0.865611 0.547815 0.164983
205 3 0.384389 0.0478153 0.164983
206 3 0.615611 0.952185 0.835017
207 3 0.865611 0.952185 0.664983
208 3 0.634389 0.0478151 0.335017
209 3 0.00608328 0.354025 0.531411
210 3 0.993917 0.645975 0.468589
211 3 0.243917 0.645975 0.0314112
212 3 0.256083 0.354025 0.968589
213 3 0.993917 0.854025 0.968589
214 3 0.00608328 0.145975 0.0314111
215 3 0.256083 0.145975 0.468589
216 3 0.243917 0.854025 0.531411
217 3 0.506083 0.354025 0.531411
218 3 0.493917 0.645975 0.468589
219 3 0.743917 0.645976 0.0314111
220 3 0.756083 0.354025 0.968589
221 3 0.493917 0.854024 0.968589
222 3 0.506083 0.145975 0.0314111
223 3 0.756083 0.145975 0.468589
224 3 0.743917 0.854025 0.531411
225 3 0.981781 0.388214 0.206496
226 3 0.0182186 0.611786 0.793504
227 3 0.268219 0.611786 0.706496
228 3 0.231781 0.388214 0.293504
229 3 0.0182186 0.888214 0.293504
230 3 0.981781 0.111786 0.706496
231 3 0.231781 0.111786 0.793504
232 3 0.268219 0.888214 0.206496
233 3 0.481781 0.388214 0.206496
234 3 0.518219 0.611786 0.793504
235 3 0.768219 0.611786 0.706496
236 3 0.731781 0.388214 0.293504
237 3 0.518219 0.888214 0.293504
238 3 0.481781 0.111786 0.706496
239 3 0.731781 0.111786 0.793504
240 3 0.768219 0.888214 0.206496
241 4 0.115964 0.606152 0.233565
242 4 0.884036 0.393847 0.766436
243 4 0.134036 0.393847 0.733564
244 4 0.365964 0.606152 0.266435
245 4 0.884036 0.106152 0.266435
246 4 0.115964 0.893847 0.733564
247 4 0.365964 0.893847 0.766436
248 4 0.134036 0.106152 0.233565
249 4 0.615964 0.606152 0.233565
250 4 0.384036 0.393847 0.766436
251 4 0.634036 0.393847 0.733564
252 4 0.865964 0.606152 0.266435
253 4 0.384036 0.106152 0.266435
254 4 0.615964 0.893847 0.733564
255 4 0.865964 0.893847 0.766436
256 4 0.634036 0.106152 0.233565
257 4 0.135496 0.579267 0.437875
258 4 0.864504 0.420733 0.562125
259 4 0.114503 0.420733 0.937875
260 4 0.385496 0.579267 0.0621256
261 4 0.864504 0.079267 0.0621259
262 4 0.135497 0.920733 0.937875
263 4 0.385497 0.920733 0.562124
264 4 0.114504 0.0792673 0.437875
265 4 0.635496 0.579267 0.437875
266 4 0.364504 0.420733 0.562125
267 4 0.614504 0.420733 0.937875
268 4 0.885496 0.579267 0.0621259
269 4 0.364504 0.079267 0.0621259
270 4 0.635496 0.920733 0.937875
271 4 0.885496 0.920733 0.562125
272 4 0.614504 0.0792672 0.437875
273 4 0.960136 0.316255 0.531785
274 4 0.0398639 0.683745 0.468215
275 4 0.289864 0.683745 0.0317851
276 4 0.210136 0.316255 0.968215
277 4 0.0398639 0.816255 0.968215
278 4 0.960136 0.183745 0.0317852
279 4 0.210136 0.183745 0.468215
280 4 0.289864 0.816255 0.531785
281 4 0.460136 0.316255 0.531785
282 4 0.539864 0.683745 0.468215
283 4 0.789864 0.683745 0.0317852
284 4 0.710136 0.316255 0.968215
285 4 0.539864 0.816256 0.968215
286 4 0.460136 0.183745 0.0317852
287 4 0.710136 0.183745 0.468215
288 4 0.789864 0.816255 0.531785
289 4 0.0206092 0.433476 0.607858
290 4 0.979391 0.566524 0.392142
291 4 0.229391 0.566524 0.107858
292 4 0.270609 0.433476 0.892142
293 4 0.979391 0.933476 0.892142
294 4 0.0206092 0.0665239 0.107858
295 4 0.270609 0.0665238 0.392142
296 4 0.229391 0.933476 0.607858
297 4 0.520609 0.433476 0.607858
298 4 0.479391 0.566524 0.392142
299 4 0.729391 0.566524 0.107858
300 4 0.770609 0.433476 0.892142
301 4 0.479391 0.933476 0.892142
302 4 0.520609 0.0665239 0.107858
303 4 0.770609 0.0665239 0.392142
304 4 0.729391 0.933476 0.607858
305 4 0.938466 0.356307 0.250827
306 4 0.0615336 0.643693 0.749173
307 4 0.311534 0.643693 0.750827
308 4 0.188466 0.356307 0.249173
309 4 0.0615335 0.856307 0.249173
310 4 0.938466 0.143693 0.750827
311 4 0.188466 0.143693 0.749173
312 4 0.311534 0.856307 0.250827
313 4 0.438466 0.356307 0.250827
314 4 0.561534 0.643693 0.749173
315 4 0.811534 0.643693 0.750827
316 4 0.688466 0.356307 0.249173
317 4 0.561534 0.856307 0.249173
318 4 0.438466 0.143693 0.750827
319 4 0.688466 0.143693 0.749173
320 4 0.811534 0.856307 0.250827
321 4 0.985161 0.477477 0.134325
322 4 0.014839 0.522523 0.865675
323 4 0.264839 0.522523 0.634325
324 4 0.235161 0.477477 0.365675
325 4 0.014839 0.977477 0.365675
326 4 0.985161 0.0225229 0.634325
327 4 0.235161 0.0225229 0.865675
328 4 0.264839 0.977477 0.134325
329 4 0.485161 0.477477 0.134325
330 4 0.514839 0.522523 0.865675
331 4 0.764839 0.522523 0.634325
332 4 0.735161 0.477477 0.365675
333 4 0.514839 0.977477 0.365675
334 4 0.485161 0.022523 0.634325
335 4 0.735161 0.022523 0.865675
336 4 0.764839 0.977477 0.134325
ITEM: TIMESTEP
1000
ITEM: NUMBER OF ATOMS
336
ITEM: BOX BOUNDS xy xz yz pp pp pp
-1.8899619190867611e-01 2.6537328749492755e+01 6.2135869441949848e-02
1.5923204408706132e-01 1.1360821906892310e+01 -7.7803632257931743e-02
1.1203607281641492e-01 1.0596963560983575e+01 -5.3946407620638473e-02
ITEM: ATOMS id type xs ys zs
1 1 0.0888912 0.391027 0.446242
2 1 0.920757 0.617622 0.553646
3 1 0.162881 0.602749 0.948624
4 1 0.332839 0.362115 0.0228163
5 1 0.909002 0.893118 0.0566413
6 1 0.0749351 0.119048 0.94989
7 1 0.342562 0.119387 0.553013
8 1 0.164618 0.896333 0.443588
9 1 0.578248 0.375819 0.480893
10 1 0.412048 0.623121 0.533276
11 1 0.67802 0.624065 0.974119
12 1 0.835094 0.38556 0.0432741
13 1 0.414669 0.870974 0.0568015
14 1 0.581536 0.0737667 0.988838
15 1 0.835718 0.116531 0.554788
16 1 0.664772 0.89461 0.475578
17 1 0.0275644 0.265918 0.315576
18 1 0.981144 0.760147 0.666884
19 1 0.22477 0.737364 0.820091
20 1 0.275072 0.230011 0.165666
21 1 0.976831 0.761444 0.177702
22 1 0.0130547 0.265311 0.818364
23 1 0.27591 0.237171 0.689066
24 1 0.230093 0.7649 0.324232
25 1 0.514633 0.249105 0.347401
26 1 0.48287 0.747509 0.639076
27 1 0.737322 0.750992 0.828215
28 1 0.772641 0.242975 0.156687
29 1 0.484086 0.742118 0.171999
30 1 0.526844 0.24035 0.89133
31 1 0.770909 0.248307 0.677482
32 1 0.726244 0.757024 0.350537
33 1 0.0811875 0.409524 0.197563
34 1 0.93562 0.595839 0.797013
35 1 0.164126 0.595391 0.704755
36 1 0.329126 0.395438 0.2721
37 1 0.92141 0.911183 0.308235
38 1 0.071964 0.123669 0.702223
39 1 0.332193 0.0790697 0.791364
40 1 0.172509 0.901439 0.197612
41 1 0.579834 0.379006 0.232856
42 1 0.427937 0.611363 0.773854
43 1 0.683621 0.582038 0.732072
44 1 0.82718 0.391282 0.292175
45 1 0.426009 0.890156 0.299608
46 1 0.568891 0.075354 0.751919
47 1 0.821497 0.0904655 0.801916
48 1 0.668718 0.89921 0.229854
49 2 0.11996 0.365325 0.520803
50 2 0.884759 0.654895 0.509962
51 2 0.130772 0.654166 0.992069
52 2 0.367408 0.315627 0.994449
53 2 0.87735 0.838196 0.0180858
54 2 0.106498 0.164868 0.00243101
55 2 0.377404 0.174839 0.520468
56 2 0.13492 0.829426 0.477714
57 2 0.605901 0.323689 0.536868
58 2 0.382847 0.678912 0.481008
59 2 0.644004 0.679683 0.0173325
60 2 0.868381 0.331202 8.1752e-05
61 2 0.382324 0.809708 0.0248536
62 2 0.612742 0.0819438 0.0618027
63 2 0.867268 0.17903 0.539446
64 2 0.634397 0.838167 0.521782
65 2 0.0715529 0.478131 0.481641
66 2 0.932367 0.541026 0.488075
67 2 0.172809 0.531049 0.0221987
68 2 0.327909 0.434042 0.95067
69 2 0.916852 0.975515 0.990473
70 2 0.0646599 0.0401919 0.00708665
71 2 0.33594 0.0524422 0.470227
72 2 0.170781 0.967431 0.522031
73 2 0.568439 0.45808 0.540502
74 2 0.41957 0.541959 0.471261
75 2 0.686129 0.550595 0.0445946
76 2 0.827866 0.465049 0.980155
77 2 0.419352 0.945961 0.981936
78 2 0.561706 0.988808 0.0147596
79 2 0.830113 0.0523973 0.472195
80 2 0.672191 0.969025 0.543781
81 2 0.989499 0.219972 0.314392
82 2 0.0195377 0.794448 0.646653
83 2 0.265292 0.772335 0.828803
84 2 0.236275 0.179543 0.176907
85 2 0.018261 0.741082 0.167705
86 2 0.972328 0.304317 0.819363
87 2 0.234739 0.269925 0.694011
88 2 0.271423 0.751745 0.342913
89 2 0.474593 0.220859 0.337562
90 2 0.520054 0.797143 0.626692
91 2 0.777755 0.777712 0.81526
92 2 0.734232 0.199975 0.141047
93 2 0.525741 0.723949 0.152023
94 2 0.485828 0.262898 0.907082
95 2 0.730579 0.284946 0.657996
96 2 0.767267 0.720389 0.364555
97 2 0.0540843 0.191098 0.294218
98 2 0.960021 0.848593 0.678795
99 2 0.203362 0.820034 0.789455
100 2 0.304815 0.163134 0.186877
101 2 0.961285 0.66586 0.206046
102 2 0.0386408 0.347919 0.816397
103 2 0.304796 0.311307 0.713427
104 2 0.21072 0.673119 0.307613
105 2 0.534406 0.158388 0.333929
106 2 0.454343 0.817416 0.670173
107 2 0.71441 0.834012 0.801359
108 2 0.798069 0.161482 0.179149
109 2 0.465629 0.650243 0.186837
110 2 0.545584 0.330057 0.896129
111 2 0.796421 0.326462 0.70557
112 2 0.703598 0.67244 0.341532
113 2 0.111019 0.365928 0.132041
114 2 0.908167 0.630555 0.87004
115 2 0.133122 0.647646 0.648075
116 2 0.359667 0.338004 0.317667
117 2 0.89414 0.855176 0.363778
118 2 0.100877 0.175838 0.647669
119 2 0.360304 0.132427 0.84614
120 2 0.140944 0.840618 0.15743
121 2 0.60603 0.304988 0.208915
122 2 0.401387 0.649918 0.845495
123 2 0.655601 0.601957 0.654388
124 2 0.85151 0.331745 0.356632
125 2 0.398156 0.838656 0.355265
126 2 0.586782 0.071728 0.66082
127 2 0.850372 0.143304 0.865321
128 2 0.639305 0.838543 0.186111
129 2 0.0754243 0.495571 0.148167
130 2 0.951572 0.511823 0.835591
131 2 0.170291 0.512199 0.645177
132 2 0.322662 0.476139 0.337157
133 2 0.927936 0.997669 0.363647
134 2 0.0640228 0.0414904 0.638307
135 2 0.327565 0.989262 0.840696
136 2 0.175346 0.976855 0.131814
137 2 0.583199 0.446291 0.154293
138 2 0.441046 0.520574 0.809328
139 2 0.694813 0.485353 0.700845
140 2 0.81753 0.465832 0.358732
141 2 0.432588 0.975188 0.359843
142 2 0.545498 0.994089 0.7628
143 2 0.812194 0.00762658 0.857918
144 2 0.674332 0.978506 0.162763
145 3 0.110767 0.432423 0.32085
146 3 0.906012 0.56375 0.679607
147 3 0.141969 0.55015 0.829886
148 3 0.348369 0.431337 0.141789
149 3 0.895111 0.945791 0.181474
150 3 0.0936491 0.0746826 0.826747
151 3 0.357322 0.0489763 0.669114
152 3 0.148223 0.950876 0.316478
153 3 0.600565 0.422368 0.357745
154 3 0.394586 0.582384 0.661856
155 3 0.657521 0.562827 0.857142
156 3 0.853091 0.433989 0.173631
157 3 0.397651 0.925228 0.182957
158 3 0.604088 0.048475 0.858813
159 3 0.846835 0.0529458 0.677727
160 3 0.64501 0.944852 0.351502
161 3 0.0462178 0.305751 0.447677
162 3 0.962323 0.70575 0.543136
163 3 0.207238 0.69385 0.943941
164 3 0.288501 0.278935 0.0358554
165 3 0.953849 0.805205 0.0562327
166 3 0.0303583 0.209615 0.94357
167 3 0.29795 0.203515 0.561537
168 3 0.208685 0.814935 0.448582
169 3 0.530907 0.301157 0.477865
170 3 0.459255 0.694838 0.519661
171 3 0.720951 0.71272 0.955549
172 3 0.792689 0.300428 0.0346684
173 3 0.460249 0.792826 0.0500139
174 3 0.544011 0.172233 0.00821693
175 3 0.791613 0.201495 0.552477
176 3 0.709824 0.810993 0.474788
177 3 0.0332756 0.342978 0.199786
178 3 0.977113 0.688475 0.788612
179 3 0.212599 0.660595 0.702581
180 3 0.282232 0.317451 0.276722
181 3 0.968543 0.835244 0.299738
182 3 0.0225959 0.194987 0.698803
183 3 0.284484 0.154439 0.799027
184 3 0.218761 0.823295 0.200613
185 3 0.527694 0.320568 0.23102
186 3 0.476417 0.684289 0.765386
187 3 0.727516 0.661593 0.716133
188 3 0.778713 0.319667 0.272106
189 3 0.47379 0.8133 0.289992
190 3 0.533791 0.181654 0.761851
191 3 0.77471 0.168122 0.793361
192 3 0.715735 0.823999 0.22942
193 3 0.134957 0.557165 0.319844
194 3 0.886316 0.434132 0.674815
195 3 0.125754 0.416143 0.836754
196 3 0.364577 0.561763 0.133789
197 3 0.882985 0.0819851 0.170039
198 3 0.109959 0.940795 0.829293
199 3 0.367075 0.912801 0.643899
200 3 0.136451 0.0865759 0.306891
201 3 0.613526 0.557237 0.356298
202 3 0.376423 0.450699 0.67087
203 3 0.635198 0.436527 0.86657
204 3 0.862105 0.570369 0.178586
205 3 0.382761 0.0587609 0.175522
206 3 0.623419 0.919216 0.840451
207 3 0.867541 0.923041 0.671979
208 3 0.625364 0.0740692 0.365108
209 3 0.000590784 0.37131 0.508564
210 3 0.0074401 0.65028 0.470133
211 3 0.253173 0.645443 0.0179417
212 3 0.241875 0.337491 0.973194
213 3 0.998067 0.853856 0.981485
214 3 0.986274 0.154606 0.00982294
215 3 0.256008 0.162214 0.471716
216 3 0.254134 0.871394 0.517653
217 3 0.486893 0.364238 0.541247
218 3 0.500955 0.622142 0.454798
219 3 0.766398 0.662613 0.0324337
220 3 0.749415 0.354669 0.951994
221 3 0.499668 0.848718 0.962351
222 3 0.496315 0.112878 0.0612801
223 3 0.750277 0.150009 0.465905
224 3 0.757015 0.862997 0.538829
225 3 0.987056 0.424293 0.173041
226 3 0.0269176 0.618271 0.81476
227 3 0.255464 0.569124 0.687266
228 3 0.236294 0.396516 0.302184
229 3 0.0144364 0.916226 0.314537
230 3 0.9772 0.11377 0.670495
231 3 0.237422 0.0753282 0.821942
232 3 0.263695 0.902757 0.159286
233 3 0.48525 0.403302 0.179508
234 3 0.522798 0.608012 0.795507
235 3 0.772836 0.58343 0.682945
236 3 0.730215 0.387954 0.310509
237 3 0.519493 0.892389 0.322482
238 3 0.48271 0.131856 0.720742
239 3 0.727193 0.0887282 0.80034
240 3 0.761233 0.901449 0.191733
241 4 0.124323 0.630481 0.22968
242 4 0.889347 0.370221 0.776298
243 4 0.124184 0.351357 0.735609
244 4 0.36112 0.629479 0.232349
245 4 0.885917 0.150978 0.268105
246 4 0.11532 0.88909 0.717294
247 4 0.354219 0.838073 0.728627
248 4 0.131391 0.138693 0.200567
249 4 0.600459 0.619983 0.259974
250 4 0.385296 0.392348 0.774676
251 4 0.638779 0.364288 0.770682
252 4 0.853447 0.624684 0.286717
253 4 0.381634 0.120737 0.279084
254 4 0.619773 0.871284 0.729323
255 4 0.867577 0.8633 0.776456
256 4 0.619903 0.133801 0.261962
257 4 0.147766 0.599725 0.429915
258 4 0.85678 0.39886 0.583693
259 4 0.105279 0.372612 0.937741
260 4 0.383819 0.598383 0.0291965
261 4 0.856728 0.115775 0.0717197
262 4 0.128324 0.896005 0.931494
263 4 0.394012 0.88202 0.548173
264 4 0.118832 0.137774 0.408442
265 4 0.636215 0.59816 0.45486
266 4 0.352709 0.406131 0.57555
267 4 0.61927 0.400568 0.974556
268 4 0.888811 0.616522 0.0919271
269 4 0.359742 0.094397 0.0728795
270 4 0.652224 0.873223 0.925124
271 4 0.886039 0.877446 0.571512
272 4 0.61258 0.113722 0.475811
273 4 0.957372 0.335501 0.471257
274 4 0.0517017 0.687918 0.495872
275 4 0.297493 0.682281 0.991662
276 4 0.19831 0.293481 0.998632
277 4 0.0427577 0.816261 0.00922042
278 4 0.940806 0.189292 0.98389
279 4 0.209857 0.196186 0.490715
280 4 0.297965 0.822795 0.515645
281 4 0.442871 0.357905 0.492374
282 4 0.546434 0.655936 0.469646
283 4 0.809782 0.70281 0.00367068
284 4 0.708919 0.296101 0.927687
285 4 0.545873 0.81774 0.963472
286 4 0.453159 0.16493 0.0585662
287 4 0.704905 0.193725 0.464544
288 4 0.801334 0.84745 0.488109
289 4 0.0044538 0.428922 0.614161
290 4 0.999666 0.574494 0.378402
291 4 0.244953 0.570414 0.108135
292 4 0.248256 0.419768 0.892084
293 4 0.989534 0.940576 0.903261
294 4 0.995043 0.0907327 0.110051
295 4 0.266905 0.0912979 0.381718
296 4 0.247416 0.961294 0.591389
297 4 0.495525 0.416067 0.648425
298 4 0.490241 0.537691 0.374915
299 4 0.760826 0.586531 0.1205
300 4 0.756823 0.456384 0.904192
301 4 0.481333 0.916552 0.872869
302 4 0.503682 0.0312033 0.147477
303 4 0.763976 0.0765611 0.377428
304 4 0.753226 0.923796 0.640535
305 4 0.94246 0.377441 0.18369
306 4 0.069114 0.670892 0.798997
307 4 0.30165 0.601891 0.70279
308 4 0.192036 0.360386 0.27374
309 4 0.0576609 0.879871 0.275002
310 4 0.93112 0.1512 0.676788
311 4 0.19333 0.10861 0.785802
312 4 0.309341 0.869816 0.18005
313 4 0.438258 0.377859 0.177656
314 4 0.566589 0.627566 0.748734
315 4 0.817061 0.624748 0.690982
316 4 0.687349 0.362076 0.264947
317 4 0.561222 0.885799 0.259867
318 4 0.4421 0.180639 0.760886
319 4 0.688659 0.114461 0.732353
320 4 0.806694 0.872498 0.209049
321 4 0.99527 0.516874 0.107356
322 4 0.0234488 0.51817 0.872924
323 4 0.245933 0.467177 0.638561
324 4 0.243583 0.496627 0.361911
325 4 0.0122516 0.0113121 0.384687
326 4 0.986424 0.00837333 0.625537
327 4 0.246882 0.972793 0.87227
328 4 0.253959 0.993657 0.090428
329 4 0.503309 0.49179 0.115126
330 4 0.514067 0.521164 0.873194
331 4 0.763696 0.485033 0.621269
332 4 0.7362 0.486343 0.375316
333 4 0.51472 0.960725 0.418852
334 4 0.479746 0.0657921 0.619799
335 4 0.726909 0.00826828 0.888054
336 4 0.749577 0.996132 0.124705
ITEM: TIMESTEP
2000
ITEM: NUMBER OF ATOMS
336
ITEM: BOX BOUNDS xy xz yz pp pp pp
-1.3142463185715483e-01 2.6484685423514509e+01 5.5267141568992352e-02
3.1027194335171426e-01 1.1456560841118542e+01 -6.6006670311660881e-02
-1.6179777919002269e-01 1.0870797412990033e+01 1.9283242587024560e-01
ITEM: ATOMS id type xs ys zs
1 1 0.100983 0.351052 0.3895
2 1 0.887895 0.636298 0.626782
3 1 0.152098 0.621615 0.878585
4 1 0.349396 0.369921 0.10988
5 1 0.894337 0.868219 0.110472
6 1 0.0936925 0.120059 0.903351
7 1 0.355698 0.141527 0.612523
8 1 0.150237 0.851192 0.377031
9 1 0.607387 0.331858 0.453569
10 1 0.387238 0.637121 0.593039
11 1 0.662451 0.6529 0.944487
12 1 0.869873 0.365226 0.12751
13 1 0.399839 0.887152 0.0718536
14 1 0.608819 0.139698 0.919835
15 1 0.854691 0.141386 0.600891
16 1 0.650458 0.827301 0.417831
17 1 0.0351157 0.266692 0.25238
18 1 0.962194 0.746791 0.731472
19 1 0.213943 0.733198 0.744038
20 1 0.280382 0.270552 0.236946
21 1 0.970484 0.785254 0.23366
22 1 0.0273407 0.23081 0.76693
23 1 0.278407 0.233502 0.710091
24 1 0.221223 0.764755 0.241563
25 1 0.542655 0.223885 0.311774
26 1 0.465353 0.735134 0.692597
27 1 0.713549 0.739983 0.770533
28 1 0.786575 0.270608 0.194718
29 1 0.464859 0.733865 0.155058
30 1 0.529385 0.25201 0.829953
31 1 0.78223 0.261871 0.691371
32 1 0.719496 0.75248 0.27015
33 1 0.102015 0.403606 0.158341
34 1 0.903936 0.599237 0.848209
35 1 0.148467 0.593665 0.64272
36 1 0.348158 0.402129 0.339532
37 1 0.901326 0.90698 0.335325
38 1 0.0952116 0.0935923 0.672048
39 1 0.339502 0.10155 0.840061
40 1 0.15847 0.930362 0.158677
41 1 0.605183 0.372008 0.220046
42 1 0.401858 0.616753 0.827267
43 1 0.638066 0.608488 0.725816
44 1 0.843052 0.379829 0.350738
45 1 0.421405 0.880619 0.302462
46 1 0.581026 0.0977713 0.705058
47 1 0.839521 0.13069 0.833985
48 1 0.646488 0.889542 0.192653
49 2 0.132139 0.28053 0.394712
50 2 0.853493 0.701289 0.62767
51 2 0.121089 0.691461 0.90076
52 2 0.384514 0.319194 0.093362
53 2 0.867129 0.785732 0.0988457
54 2 0.122756 0.191522 0.92642
55 2 0.38516 0.218395 0.625421
56 2 0.117595 0.789283 0.38276
57 2 0.633024 0.251236 0.443289
58 2 0.364323 0.724545 0.60048
59 2 0.637755 0.723081 0.977577
60 2 0.89914 0.287099 0.127468
61 2 0.362042 0.84109 0.0511967
62 2 0.63942 0.215038 0.905272
63 2 0.884476 0.209893 0.570301
64 2 0.626551 0.745386 0.43924
65 2 0.101541 0.402111 0.476194
66 2 0.885661 0.583109 0.540478
67 2 0.159112 0.568373 0.963833
68 2 0.342461 0.443701 0.0372336
69 2 0.886337 0.91289 0.0207478
70 2 0.0914508 0.0516927 0.983541
71 2 0.373148 0.095545 0.525849
72 2 0.150834 0.899698 0.470033
73 2 0.615805 0.365798 0.548984
74 2 0.372719 0.588156 0.510724
75 2 0.670606 0.584283 0.016813
76 2 0.881363 0.426989 0.0501623
77 2 0.3992 0.959594 0.999803
78 2 0.621705 0.0776543 0.999938
79 2 0.85691 0.0729436 0.525664
80 2 0.65483 0.880176 0.504117
81 2 0.992582 0.251289 0.247235
82 2 0.00436828 0.755148 0.708134
83 2 0.25565 0.742341 0.745021
84 2 0.236435 0.264226 0.23386
85 2 0.0132912 0.774985 0.224823
86 2 0.983859 0.246152 0.765922
87 2 0.236104 0.257544 0.696239
88 2 0.262308 0.728207 0.246804
89 2 0.498348 0.216373 0.311785
90 2 0.507492 0.754861 0.681329
91 2 0.755325 0.740246 0.753794
92 2 0.745118 0.28165 0.158912
93 2 0.504859 0.698537 0.127755
94 2 0.489599 0.267189 0.852403
95 2 0.740835 0.281469 0.667643
96 2 0.761243 0.741765 0.263237
97 2 0.052615 0.174745 0.234363
98 2 0.946734 0.837212 0.762091
99 2 0.196671 0.822151 0.71021
100 2 0.289979 0.172422 0.267967
101 2 0.95695 0.690002 0.26143
102 2 0.0408384 0.326844 0.740588
103 2 0.292273 0.325126 0.741954
104 2 0.200496 0.684034 0.216178
105 2 0.556177 0.127351 0.291245
106 2 0.448066 0.829954 0.703307
107 2 0.700246 0.838418 0.74356
108 2 0.789587 0.171596 0.215972
109 2 0.445408 0.645213 0.170245
110 2 0.543823 0.345863 0.812323
111 2 0.79961 0.360874 0.696808
112 2 0.706197 0.656872 0.243898
113 2 0.128578 0.331187 0.127777
114 2 0.881524 0.6789 0.885685
115 2 0.120876 0.666154 0.610347
116 2 0.372813 0.320723 0.37303
117 2 0.880766 0.830619 0.381622
118 2 0.122249 0.168438 0.641266
119 2 0.359555 0.188129 0.874338
120 2 0.130623 0.873789 0.104456
121 2 0.634825 0.307382 0.188565
122 2 0.38086 0.703484 0.862031
123 2 0.611083 0.689678 0.703822
124 2 0.860903 0.292896 0.387525
125 2 0.393097 0.808813 0.339943
126 2 0.607409 0.140077 0.636803
127 2 0.86463 0.201774 0.869832
128 2 0.62045 0.818534 0.155409
129 2 0.109879 0.474577 0.0922494
130 2 0.907849 0.52616 0.915867
131 2 0.140958 0.519511 0.572558
132 2 0.356857 0.475793 0.409742
133 2 0.896191 0.987867 0.391817
134 2 0.100917 0.0235577 0.595708
135 2 0.343458 0.0396407 0.919521
136 2 0.157717 0.026276 0.113547
137 2 0.609944 0.448134 0.151582
138 2 0.395168 0.552196 0.908657
139 2 0.624731 0.535429 0.661256
140 2 0.843004 0.445292 0.428468
141 2 0.431544 0.93835 0.384021
142 2 0.570235 0.00723706 0.667405
143 2 0.837454 0.0622817 0.912822
144 2 0.64341 0.971877 0.130496
145 3 0.11934 0.429979 0.285256
146 3 0.875747 0.559566 0.736173
147 3 0.132474 0.556059 0.771445
148 3 0.369952 0.435089 0.218401
149 3 0.873315 0.936256 0.217491
150 3 0.115811 0.0570998 0.793015
151 3 0.366899 0.0654122 0.727286
152 3 0.133659 0.941334 0.28057
153 3 0.625342 0.407849 0.344585
154 3 0.37531 0.572407 0.710737
155 3 0.628476 0.585673 0.855588
156 3 0.873739 0.430436 0.248273
157 3 0.390637 0.93468 0.197345
158 3 0.615349 0.0627112 0.808726
159 3 0.865806 0.0836181 0.720985
160 3 0.626497 0.907574 0.319837
161 3 0.0538634 0.279612 0.38039
162 3 0.933966 0.715485 0.617832
163 3 0.197575 0.70367 0.869213
164 3 0.301429 0.295761 0.113186
165 3 0.946492 0.812351 0.114048
166 3 0.0462331 0.198743 0.893426
167 3 0.306475 0.206733 0.597162
168 3 0.198814 0.780047 0.365
169 3 0.559561 0.261696 0.440881
170 3 0.438583 0.696685 0.579964
171 3 0.706987 0.726531 0.90567
172 3 0.820693 0.308589 0.0940038
173 3 0.441121 0.79674 0.0452482
174 3 0.558978 0.203297 0.937822
175 3 0.806827 0.216051 0.579525
176 3 0.70103 0.769188 0.397777
177 3 0.049727 0.35107 0.147071
178 3 0.95565 0.660741 0.836502
179 3 0.198832 0.652672 0.639128
180 3 0.294889 0.355406 0.338319
181 3 0.955783 0.866801 0.337218
182 3 0.0420315 0.149463 0.665434
183 3 0.286997 0.152142 0.821261
184 3 0.209482 0.86336 0.14935
185 3 0.555346 0.311315 0.208821
186 3 0.45449 0.663642 0.808832
187 3 0.686844 0.655001 0.683114
188 3 0.791593 0.332596 0.315487
189 3 0.465308 0.799568 0.273589
190 3 0.535347 0.179129 0.715118
191 3 0.78967 0.19025 0.809246
192 3 0.699162 0.839141 0.175415
193 3 0.111725 0.564942 0.313701
194 3 0.887386 0.426067 0.709679
195 3 0.137099 0.417033 0.791992
196 3 0.368442 0.575784 0.206298
197 3 0.877894 0.0734328 0.191439
198 3 0.113943 0.918471 0.814642
199 3 0.363224 0.926573 0.70404
200 3 0.133554 0.0726762 0.327949
201 3 0.616456 0.54229 0.369391
202 3 0.380892 0.434051 0.698488
203 3 0.634579 0.446088 0.875849
204 3 0.866138 0.568216 0.227655
205 3 0.394778 0.0743673 0.197784
206 3 0.609981 0.924939 0.840187
207 3 0.865533 0.942434 0.720441
208 3 0.635912 0.041611 0.353279
209 3 0.00940098 0.340545 0.446144
210 3 0.971897 0.671483 0.52108
211 3 0.240503 0.651705 0.95082
212 3 0.261662 0.356774 0.0291273
213 3 0.984783 0.870914 0.025501
214 3 0.00400086 0.159135 0.978802
215 3 0.269971 0.143201 0.50727
216 3 0.239208 0.826014 0.453192
217 3 0.514266 0.319406 0.507172
218 3 0.475356 0.629334 0.496103