LAMMPS data file via write_data, version 15 Apr 2020, timestep = 80000

336 atoms
4 atom types

5.3908660458255042e-03 2.6358609454353491e+01 xlo xhi
1.5539742196010398e-01 1.1418602936639438e+01 ylo yhi
5.1334954074652828e-02 1.0657664679725325e+01 zlo zhi
-9.5191056951976563e-02 -2.9608858966390900e-01 2.2611263220373171e-01 xy xz yz

Masses

1 12.0107
2 1.00794
3 14.0067
4 15.9994

Atoms # full

1 1 1 7.4135936594290838e-04 2.1531697366873179e+00 4.6562875464069577e+00 4.8580149865624769e+00 0 0 0
2 1 1 1.5606690744871879e-03 2.2849021213440061e+01 7.5675866595944470e+00 6.2336949898196696e+00 0 0 0
3 1 1 8.6290394040525378e-03 4.1859126363909533e+00 7.4771050977917586e+00 1.0014742523638283e+01 0 0 0
4 1 1 -1.0045977360981229e-03 8.7926931843750538e+00 4.4061873433148211e+00 2.0540912860977643e+00 0 0 0
5 1 1 -1.0593744508106417e-02 2.3426040134070853e+01 9.5228828533387073e+00 1.0059531444120506e+00 0 0 0
6 1 1 -9.3356834491932876e-03 2.1201925431447677e+00 1.7050757447739706e+00 1.0218607387708435e+01 0 0 0
7 1 1 2.5647062802022953e-03 8.4757111825775073e+00 1.9250528545438388e+00 6.1771576259785137e+00 0 0 0
8 1 1 7.3205909850172866e-03 3.8822040892312635e+00 1.0002786534593099e+01 3.7480647268025762e+00 0 0 0
9 1 1 4.0950835427378679e-04 1.5720166590350253e+01 4.1431351551343258e+00 4.1612963586743419e+00 0 0 0
10 1 1 1.5293447234707158e-03 1.0168074203345565e+01 7.3222924159095726e+00 6.6230178477550865e+00 0 0 0
11 1 1 -1.6751766960589564e-02 1.7196406972350477e+01 7.3438600334491859e+00 1.0151835560217167e+01 0 0 0
12 1 1 8.0416017922840064e-03 2.2777294281010128e+01 3.8848939130098397e+00 1.0089730387733202e+00 0 0 0
13 1 1 -1.6158696888079187e-02 1.1049252580031261e+01 1.0181368389289783e+01 7.2887431882063591e-01 0 0 0
14 1 1 3.1585969297369260e-03 1.5846285372626191e+01 1.7397179990938292e+00 9.3053453920385110e+00 0 0 0
15 1 1 -3.1969103431170286e-03 2.2822961997779593e+01 1.8939857105827811e+00 6.3286441339062245e+00 0 0 0
16 1 1 -1.3806302375645542e-02 1.7565241501261248e+01 9.6331142394641276e+00 4.5690810946799365e+00 0 0 0
17 1 1 9.0830390959645898e-03 8.0523133146509562e-01 3.2273732057691484e+00 3.2065418429934414e+00 0 0 0
18 1 1 1.1801214235743106e-02 2.5129757044720133e+01 8.4571185504766468e+00 6.9738049192044560e+00 0 0 0
19 1 1 7.7937758831548003e-03 5.5733752903715335e+00 8.9196067453779868e+00 8.3139781528867669e+00 0 0 0
20 1 1 -4.1343579066946412e-05 6.2777643414729463e+00 4.0187360974287225e+00 1.9838944813580703e+00 0 0 0
21 1 1 1.0623856276632650e-02 2.5778380545806634e+01 8.8999742439700427e+00 1.8402212070250421e+00 0 0 0
22 1 1 5.6768430691509081e-03 5.8359528122892579e-01 2.7242414041220457e+00 8.3777375865839581e+00 0 0 0
23 1 1 2.9375372282825545e-02 6.9876879617328242e+00 3.3311924148449075e+00 7.8186817151327972e+00 0 0 0
24 1 1 -5.5444340406866771e-03 6.4539317537863008e+00 9.7407841398995600e+00 3.5942595837585625e+00 0 0 0
25 1 1 2.6769575434998708e-04 1.3619826030855947e+01 3.0871202935672368e+00 3.2826720421233233e+00 0 0 0
26 1 1 8.5054189062759231e-04 1.2028750489281368e+01 8.1457491518397376e+00 8.2035597386034489e+00 0 0 0
27 1 1 2.0207125692779306e-02 1.8527649902887184e+01 8.6009917872144328e+00 8.4028672433577221e+00 0 0 0
28 1 1 2.0257226027460044e-02 2.0456571714383184e+01 3.0210430288909498e+00 1.7789447627984238e+00 0 0 0
29 1 1 2.1738563194087478e-03 1.2515900781699395e+01 8.8832194905777762e+00 2.5283608970093159e+00 0 0 0
30 1 1 1.5860549516181540e-02 1.3583359177803411e+01 2.7190884520468521e+00 8.7038251160436388e+00 0 0 0
31 1 1 4.8683711085351078e-05 2.0370673395519752e+01 2.6771888760838336e+00 6.8290612987388544e+00 0 0 0
32 1 1 -1.2577045442866048e-02 1.8950432274396629e+01 8.6191291106243888e+00 2.6547111639687730e+00 0 0 0
33 1 1 2.0685261549384111e-02 2.4548784299359192e+00 4.8972425410448936e+00 2.2948193863047290e+00 0 0 0
34 1 1 5.4702880453265552e-03 2.3745021056147756e+01 7.0677085672049778e+00 8.5869438745387701e+00 0 0 0
35 1 1 1.4749136518333646e-02 3.8820634627252053e+00 7.1384708789901419e+00 7.4325875460438100e+00 0 0 0
36 1 1 4.7551518108521589e-03 7.3848191687916964e+00 5.0716964333349548e+00 4.0094906349800326e+00 0 0 0
37 1 1 -1.0982264657591993e-03 2.4285867648117900e+01 1.0284225229297753e+01 3.3440802079435814e+00 0 0 0
38 1 1 1.5096157245515947e-02 2.4138741826826511e+00 1.0809246084256161e+00 7.7461361904596435e+00 0 0 0
39 1 1 1.4064317283570466e-02 8.6806315409958881e+00 1.6732837325599970e+00 8.7552435780426432e+00 0 0 0
40 1 1 -2.2927663976702154e-02 5.1204435912793178e+00 1.0939941335597542e+01 1.7149978380022615e+00 0 0 0
41 1 1 -1.8588530184330761e-02 1.4853423197152473e+01 4.7527505094835005e+00 1.7792253770155564e+00 0 0 0
42 1 1 -7.3397914103825318e-03 1.0349366718831648e+01 6.3696925858233051e+00 8.9663707798056436e+00 0 0 0
43 1 1 5.2986103710349394e-03 1.6768804473042689e+01 6.9083611675941619e+00 7.6547322625050933e+00 0 0 0
44 1 1 3.0199327071671160e-03 2.1879269328205488e+01 4.5445996185619313e+00 3.3552522882619575e+00 0 0 0
45 1 1 1.0520639864269871e-02 1.0766966952599425e+01 1.0517371793696991e+01 3.2882666440246169e+00 0 0 0
46 1 1 -1.2596769697140606e-02 1.4646272336996988e+01 1.0528159302504787e+00 7.1158661345636229e+00 0 0 0
47 1 1 -3.2661072386814122e-03 2.1727428953335739e+01 1.3566734221528012e+00 8.5294809935883045e+00 0 0 0
48 1 1 6.9854101380208023e-03 1.7010198416185254e+01 1.0076727391687918e+01 2.1061301952996132e+00 0 0 0
49 1 2 2.3017962042348905e-01 3.1039812850104891e+00 4.0457327372384402e+00 5.1656654364584593e+00 0 0 0
50 1 2 2.7445921794356426e-01 2.2145822704878736e+01 8.4094715616508289e+00 6.5046553492115207e+00 0 0 0
51 1 2 2.4608860125002460e-01 3.7511879196735136e+00 7.6757893883700712e+00 2.3624708305020958e-01 0 0 1
52 1 2 2.6708813082791089e-01 9.4790955715522500e+00 3.6181583549050660e+00 2.3682501600254744e+00 0 0 0
53 1 2 2.7474759711682589e-01 2.2738433735480967e+01 8.6123892926103203e+00 1.1207519162017576e+00 0 0 0
54 1 2 2.4393463404120219e-01 2.9688887519544083e+00 2.4759899502967468e+00 1.0490812606977281e+01 0 0 0
55 1 2 2.3673362541101606e-01 9.2733007526110907e+00 2.3264412897306270e+00 5.4975853153950194e+00 0 0 0
56 1 2 2.5049941943104509e-01 3.6778089867879924e+00 9.0279075819881207e+00 3.2037351081774150e+00 0 0 0
57 1 2 2.5984344607729165e-01 1.6586865009361770e+01 3.3813178831680233e+00 3.9399080220291176e+00 0 0 0
58 1 2 2.6052952183404626e-01 9.3485716464103348e+00 8.1253155020595145e+00 6.8363857352657487e+00 0 0 0
59 1 2 2.3299997301354858e-01 1.6685185250786450e+01 7.6766945695672497e+00 7.2752428363867291e-02 0 0 1
60 1 2 2.7172737869320679e-01 2.3543871963797383e+01 3.0240065243627270e+00 1.2183899117460282e+00 0 0 0
61 1 2 2.3155559739411771e-01 1.0122218561842427e+01 9.5736904953915349e+00 3.9439112350222888e-01 0 0 0
62 1 2 2.7118421474140486e-01 1.6627599750879515e+01 2.5078032911121970e+00 8.9791872825643715e+00 0 0 0
63 1 2 2.6634397355080608e-01 2.3476436114553543e+01 2.7803395532357680e+00 6.4724238703129968e+00 0 0 0
64 1 2 2.4407122150011024e-01 1.6999052803705993e+01 8.7201320221917911e+00 4.8429200841370985e+00 0 0 0
65 1 2 2.2492660832946970e-01 2.0190495412421940e+00 5.3431577127773346e+00 5.7792413986189857e+00 0 0 0
66 1 2 2.4032891017339753e-01 2.2259277837553796e+01 7.0720069471451170e+00 5.4412384127591773e+00 0 0 0
67 1 2 2.6616202344006801e-01 4.7492373421369809e+00 6.6077200387480266e+00 1.0494308745358442e+01 0 0 -1
68 1 2 2.5141677456606337e-01 9.5025024097440909e+00 4.9622383305682725e+00 1.3761323419714995e+00 0 0 1
69 1 2 2.3979993272083733e-01 2.3015529397617733e+01 1.0099369997010037e+01 1.2051628030001971e-01 0 0 1
70 1 2 2.5392344147611284e-01 2.2380305614731615e+00 8.8410961248734454e-01 5.0608449691604740e-01 0 0 0
71 1 2 2.6830493576266889e-01 8.0370619514679014e+00 1.1263937514152338e+00 5.5283130946232903e+00 0 0 0
72 1 2 2.5699700462048231e-01 2.9548136405086183e+00 1.0216936381691585e+01 4.3542432933591630e+00 0 0 0
73 1 2 2.3663366577990649e-01 1.6093554189317373e+01 4.7956003031376833e+00 5.0456287428327222e+00 0 0 0
74 1 2 2.4077214208656605e-01 1.0041598489813046e+01 7.0401035146996582e+00 5.5140586893115264e+00 0 0 0
75 1 2 2.3524574467570916e-01 1.7782916092173721e+01 6.3229485101132719e+00 3.6160686984884038e-01 0 0 0
76 1 2 2.3064593046728746e-01 2.3334033465758740e+01 4.3353606460147818e+00 1.1495969545226686e-01 0 0 1
77 1 2 2.5250598339285829e-01 1.1034920143876159e+01 1.1132006149466257e+01 1.0518663121114990e+01 0 0 0
78 1 2 2.3308230826013118e-01 1.6365179483001445e+01 1.2921646789086754e+00 1.0239439071039071e+01 0 0 -1
79 1 2 2.4285071209530742e-01 2.3372802653218653e+01 1.3682575084384569e+00 5.4658631704511347e+00 0 0 0
80 1 2 2.3286346114716455e-01 1.7764463058891113e+01 1.0164623805414038e+01 5.5258958554735900e+00 0 0 0
81 1 2 2.7268599801979893e-01 2.6033463964768764e+01 2.9747805498133473e+00 3.1525096506212185e+00 0 0 0
82 1 2 2.6212307566178017e-01 -1.7580446621767021e-01 8.3859089465473851e+00 6.5974485774650100e+00 0 0 0
83 1 2 2.6387524381997024e-01 6.6885896274256469e+00 8.9556827516002002e+00 8.4409068453898470e+00 0 0 0
84 1 2 2.2395874554158332e-01 5.3690915351375699e+00 4.1274111482950522e+00 1.2928762358694055e+00 0 0 0
85 1 2 2.7853899596696186e-01 5.2250009430538058e-01 8.9804449957344907e+00 1.4750957695786773e+00 0 0 0
86 1 2 2.5304634977114560e-01 2.5921279354871693e+01 2.9764733472699514e+00 8.0902962150813593e+00 0 0 0
87 1 2 2.6853853207967737e-01 5.8790621343899545e+00 3.7008446216945985e+00 7.8261385768886544e+00 0 0 0
88 1 2 2.4440279450219637e-01 7.4285378210842117e+00 9.8205490800626976e+00 4.1817371366487768e+00 0 0 0
89 1 2 2.7909738117417510e-01 1.2565765736206297e+01 2.8461459261863649e+00 3.4694050902291313e+00 0 0 0
90 1 2 2.8264079285123306e-01 1.3208574654867180e+01 8.1823406652666968e+00 8.1539737201905194e+00 0 0 0
91 1 2 2.6966136270588154e-01 1.9600455611931594e+01 9.0002166666019683e+00 8.1121618662062414e+00 0 0 0
92 1 2 2.7280497130589870e-01 1.9376485420797692e+01 2.8754873934185481e+00 1.3954298925204398e+00 0 0 0
93 1 2 2.5327862155540348e-01 1.3642630238455039e+01 8.6215748908842649e+00 2.6309235203446195e+00 0 0 0
94 1 2 2.6464627208810343e-01 1.2536786994886519e+01 3.0970379981898790e+00 9.1134595942825047e+00 0 0 0
95 1 2 2.6219220655467279e-01 1.9437398792920050e+01 2.5383240887194223e+00 6.3225389249333190e+00 0 0 0
96 1 2 2.5509900751352454e-01 1.9979371836464857e+01 8.3608580600933529e+00 2.4643714081057078e+00 0 0 0
97 1 2 2.7654328485930280e-01 1.2751259431760442e+00 2.2105932925355392e+00 3.1666043433240869e+00 0 0 0
98 1 2 2.7608251250233723e-01 2.5087183887757355e+01 9.6139769557430625e+00 7.1911294133528072e+00 0 0 0
99 1 2 2.8033823740997843e-01 5.2519669261989792e+00 9.9360264919389145e+00 7.9732316891214197e+00 0 0 0
100 1 2 2.4515137894335365e-01 6.2380342259377697e+00 2.8899665209166305e+00 2.3222054016067055e+00 0 0 0
101 1 2 2.6114036260690282e-01 2.5797417586252596e+01 7.8268994622315464e+00 2.2109146472502306e+00 0 0 0
102 1 2 2.5712069899196377e-01 1.1139544623074984e+00 3.7114133089212413e+00 8.1774505325723510e+00 0 0 0
103 1 2 2.5709705220535184e-01 7.5772466809574066e+00 4.3057996934791598e+00 7.9353037740084309e+00 0 0 0
104 1 2 2.6405330180732151e-01 6.4893088512464221e+00 8.6932624078700265e+00 3.2064362950253593e+00 0 0 0
105 1 2 2.5246706057485202e-01 1.4095956396742352e+01 2.1194860056653511e+00 2.9023318504932161e+00 0 0 0
106 1 2 2.3185182195806350e-01 1.1753188969782936e+01 9.1679084883246702e+00 8.5809715499807293e+00 0 0 0
107 1 2 2.5158197937270865e-01 1.7851902446277098e+01 9.5090741894072721e+00 8.3147891056963381e+00 0 0 0
108 1 2 2.5862012894888975e-01 2.0763310194578999e+01 1.9651381408700439e+00 2.1573515890426571e+00 0 0 0
109 1 2 2.6365610326228273e-01 1.1987920272056680e+01 7.8536709107660050e+00 2.6909150233320260e+00 0 0 0
110 1 2 2.3623353952267140e-01 1.4003057367754158e+01 3.6999481814370574e+00 8.3287519089706112e+00 0 0 0
111 1 2 2.7098297422898499e-01 2.0443315565579319e+01 3.7983852378401366e+00 7.1533780126997195e+00 0 0 0
112 1 2 2.1294178417730164e-01 1.8431736118475275e+01 7.6529224194334811e+00 2.4799497610305372e+00 0 0 0
113 1 2 2.2677118745279184e-01 3.3064171190346783e+00 4.1582247186885946e+00 2.0292363801554139e+00 0 0 0
114 1 2 2.5041829217105405e-01 2.3240913390979852e+01 7.9185657994074488e+00 9.1010531313987091e+00 0 0 0
115 1 2 2.5556397342585618e-01 3.0999540378216679e+00 7.7449781752908491e+00 6.8203161555760383e+00 0 0 0
116 1 2 2.1388456866912753e-01 7.5279925323203125e+00 4.0636886651968638e+00 4.5092531451949514e+00 0 0 0
117 1 2 2.4847277652375779e-01 2.3963977846239246e+01 9.5382544428127183e+00 4.1284339004948620e+00 0 0 0
118 1 2 2.4796442403002125e-01 3.2565026910316277e+00 1.7948269721563876e+00 7.3955276938538770e+00 0 0 0
119 1 2 2.7965350098039593e-01 9.5257780178187161e+00 2.3033770061568433e+00 9.1845475071708016e+00 0 0 0
120 1 2 2.2788862622361614e-01 4.8595236141339075e+00 1.0086512840899772e+01 1.0826823465921338e+00 0 0 0
121 1 2 2.5181931902560517e-01 1.5302768518362605e+01 4.2102486742593106e+00 9.5083503713446016e-01 0 0 0
122 1 2 2.4596476690217695e-01 9.5997951247183639e+00 6.9261421351102230e+00 9.5221833689391673e+00 0 0 0
123 1 2 2.4133542828927546e-01 1.5993156319952428e+01 7.6272093332398514e+00 7.2485197891051785e+00 0 0 0
124 1 2 2.4858759404393910e-01 2.2528507129435287e+01 3.9507855399191611e+00 4.1194402840069362e+00 0 0 0
125 1 2 2.2633874480270197e-01 9.8684784829573555e+00 1.0019469624926518e+01 3.7138601692195912e+00 0 0 0
126 1 2 2.4052301787617919e-01 1.5125315580360081e+01 1.6406724876154137e+00 6.2633205982161222e+00 0 0 0
127 1 2 2.3832359073487139e-01 2.2306874104994936e+01 2.1700430180818095e+00 9.0892124179990628e+00 0 0 0
128 1 2 2.4032010663875097e-01 1.6213701119592439e+01 9.2956084020373702e+00 1.9485201557236922e+00 0 0 0
129 1 2 2.6217070176122675e-01 2.6050006541911954e+00 5.6838939427326105e+00 1.5056542143585516e+00 0 0 0
130 1 2 2.5458606882012480e-01 2.3918330221707912e+01 6.2922355971231729e+00 9.3960004640934738e+00 0 0 0
131 1 2 2.1780886118351575e-01 3.9092333903053262e+00 6.2180085620398344e+00 6.7769982784727487e+00 0 0 0
132 1 2 2.5839348422692798e-01 7.3284420433148663e+00 5.8872293680895567e+00 4.8492942000040076e+00 0 0 0
133 1 2 2.5528577229164523e-01 2.4414542866540405e+01 1.1232449440068564e+01 3.8856688179142869e+00 0 0 0
134 1 2 2.7968306852184766e-01 2.4387482584727183e+00 1.1471721738066357e+01 7.0035960175419003e+00 0 -1 0
135 1 2 2.4394410107195183e-01 8.6238580345665721e+00 7.6408353656744166e-01 9.4197710539172252e+00 0 0 0
136 1 2 2.3361851124553207e-01 5.2671225539304354e+00 4.5395546524277036e-01 9.3209159738544134e-01 0 1 0
137 1 2 2.6292717982641350e-01 1.4505109149109149e+01 5.7604987099170009e+00 1.3136129742506799e+00 0 0 0
138 1 2 2.5088359928204335e-01 1.0497758972996266e+01 5.3567403324608875e+00 9.5303646735071847e+00 0 0 0
139 1 2 2.5163838891236917e-01 1.6588534322513684e+01 5.9930283069125228e+00 7.0236759288203183e+00 0 0 0
140 1 2 2.5996817432411101e-01 2.1505851814638628e+01 5.4942878589483959e+00 3.8921511166086344e+00 0 0 0
141 1 2 2.6266661981027706e-01 1.0841128067804375e+01 1.1500620701075885e+01 3.9480525051207138e+00 0 0 0
142 1 2 2.7630039925310557e-01 1.4112861702931252e+01 1.1382800875930680e+01 6.6772775430968458e+00 0 -1 0
143 1 2 2.6008379861093123e-01 2.1577842730106642e+01 5.6271697661839015e-01 9.3100378089807414e+00 0 0 0
144 1 2 2.5401860891519668e-01 1.6549543480076874e+01 1.0873725229832779e+01 1.3343507355138020e+00 0 0 0
145 1 3 -1.8251379146100188e-01 2.6533567547634824e+00 5.4505623771572509e+00 3.6859763508760928e+00 0 0 0
146 1 3 -1.3459177961336988e-01 2.2781785768965591e+01 6.6974197809293807e+00 7.5079575470953808e+00 0 0 0
147 1 3 -1.3118366555720490e-01 3.4219390681809476e+00 6.8541052436657388e+00 8.8376817291475707e+00 0 0 0
148 1 3 -1.6774705225860234e-01 8.6847387055474989e+00 5.2761420330812969e+00 3.2254387234283484e+00 0 0 0
149 1 3 -1.2676216556478706e-01 2.3296263042368359e+01 1.0454317690538549e+01 2.1682189656548063e+00 0 0 0
150 1 3 -1.6207815814282020e-01 2.7493000964007219e+00 8.1879427693494256e-01 9.1912039275610002e+00 0 0 0
151 1 3 -1.2638418632210047e-01 9.1703995474603008e+00 1.3110369413429748e+00 7.3352913891450848e+00 0 0 0
152 1 3 -1.5587055373172831e-01 3.9116380274139377e+00 1.1022120299225268e+01 2.6671673429916130e+00 0 0 0
153 1 3 -1.5364864670432013e-01 1.5809796162560792e+01 5.0330343826657931e+00 2.9085081790508709e+00 0 0 0
154 1 3 -1.5706024986797520e-01 9.8003041938565953e+00 6.2359489083365842e+00 7.5688164467814252e+00 0 0 0
155 1 3 -1.4195472317862795e-01 1.6506148267202040e+01 6.5202716106177752e+00 9.0807670449866915e+00 0 0 0
156 1 3 -1.2491879177178887e-01 2.2803022999408167e+01 4.8175844062239559e+00 2.2020363041632587e+00 0 0 0
157 1 3 -1.8403495590292351e-01 1.0392975054294377e+01 1.0902898796864861e+01 1.8960606107937608e+00 0 0 0
158 1 3 -1.4729174964688119e-01 1.5764482490808675e+01 8.0776939583007457e-01 8.1154226780039398e+00 0 0 0
159 1 3 -1.4294745604749098e-01 2.2885843543425594e+01 1.0533879441954879e+00 7.5571624789614971e+00 0 0 0
160 1 3 -1.4456470875388677e-01 1.6767334758300237e+01 1.0400547073992868e+01 3.5611231102280416e+00 0 0 0
161 1 3 -1.7685599616584075e-01 1.0616745283853795e+00 3.6471255202207495e+00 4.6268158152212742e+00 0 0 0
162 1 3 -1.8066243346251867e-01 2.4183218421209528e+01 8.1615798021558916e+00 5.8529207361856450e+00 0 0 0
163 1 3 -1.8032360914826645e-01 5.1715289499090868e+00 8.5844809306830570e+00 9.7313784949863589e+00 0 0 0
164 1 3 -1.5060502319528196e-01 7.5663989947035004e+00 3.9014052442656526e+00 1.2996408780834210e+00 0 0 0
165 1 3 -1.6795201859756076e-01 2.4758831704017126e+01 8.9542482447202829e+00 6.5937469885341793e-01 0 0 0
166 1 3 -1.6503159776639714e-01 9.6029402343578041e-01 2.5699955397764018e+00 9.8335983995175607e+00 0 0 0
167 1 3 -2.1184832407614546e-01 7.3301814217827106e+00 2.8932830822362239e+00 6.4297284668354262e+00 0 0 0
168 1 3 -1.5896519559850580e-01 5.2072261191188156e+00 9.7114018232046604e+00 4.4264602385073362e+00 0 0 0
169 1 3 -1.8994381976400232e-01 1.4475048128800481e+01 3.4309306508123703e+00 4.5105265005056232e+00 0 0 0
170 1 3 -1.6671095281949563e-01 1.1462861539048458e+01 8.0697592388002377e+00 6.8270034310662107e+00 0 0 0
171 1 3 -1.5868040692322860e-01 1.8358687237825450e+01 8.2362109562637080e+00 9.8618071312938387e+00 0 0 0
172 1 3 -1.7158864662070533e-01 2.1462244461451348e+01 3.2403494746144950e+00 6.7452980013193797e-01 0 0 0
173 1 3 -1.7196953076858063e-01 1.2127789355008662e+01 9.2209360204599768e+00 1.0424279076192833e+00 0 0 0
174 1 3 -1.8675735719508255e-01 1.4619507960984315e+01 2.4211024004745019e+00 9.7832738229155556e+00 0 0 0
175 1 3 -1.6585445365676590e-01 2.1435279740583358e+01 2.3581973779187710e+00 5.8286647219605223e+00 0 0 0
176 1 3 -1.8128589469501966e-01 1.8760083061726036e+01 8.8254934682908370e+00 4.1193565349132966e+00 0 0 0
177 1 3 -1.7227127939422465e-01 1.2425985462249285e+00 4.0817928916051098e+00 2.0358163982190165e+00 0 0 0
178 1 3 -1.7633774526542653e-01 2.5050681680610467e+01 7.7307003034443627e+00 8.2838974238577840e+00 0 0 0
179 1 3 -1.7175612875911239e-01 5.1639321059126830e+00 7.8996942097497795e+00 7.2581023162307288e+00 0 0 0
180 1 3 -1.9932034739332519e-01 6.1169365401190579e+00 4.8174539778193388e+00 3.2866984026345820e+00 0 0 0
181 1 3 -1.8619940520495037e-01 2.5634518174408417e+01 9.7336628497103490e+00 3.0687011300766698e+00 0 0 0
182 1 3 -1.9036740116477702e-01 1.1208596726218294e+00 1.7641742242051390e+00 7.3742199892893128e+00 0 0 0
183 1 3 -1.5805161675626073e-01 7.3675191014573507e+00 2.3767271766600184e+00 8.9287320777398449e+00 0 0 0
184 1 3 -1.7354413056722204e-01 6.4483489886082461e+00 1.0566996924074417e+01 2.2933422614031231e+00 0 0 0
185 1 3 -1.5183182562107286e-01 1.3567646926728797e+01 4.0516930943735652e+00 2.1066748078926922e+00 0 0 0
186 1 3 -1.8629097422052196e-01 1.1663410036165072e+01 7.0718036099621733e+00 9.2056149415737156e+00 0 0 0
187 1 3 -2.1837810049547191e-01 1.8074756280594329e+01 7.6390762032224568e+00 7.3549933351185279e+00 0 0 0
188 1 3 -1.7552904005912212e-01 2.0574212318508639e+01 3.8327221275995473e+00 3.0521511916980799e+00 0 0 0
189 1 3 -1.7869495761903043e-01 1.2030248252136087e+01 9.7381102663555268e+00 3.6017292154719236e+00 0 0 0
190 1 3 -1.7153013628451130e-01 1.3420023028225875e+01 1.7964929920225774e+00 7.5546425665813297e+00 0 0 0
191 1 3 -1.7114108605717063e-01 2.0387694566882548e+01 1.9059117428781329e+00 8.1465938454257198e+00 0 0 0
192 1 3 -1.8228922969757813e-01 1.8349207532486922e+01 9.5809311974443290e+00 1.6456919442777447e+00 0 0 0
193 1 3 3.7521583854516943e-01 2.3256588074697611e+00 6.9756289990077605e+00 3.6910023880669431e+00 0 0 0
194 1 3 3.7762587158450800e-01 2.2920958056815440e+01 5.2233706867866365e+00 7.1259447641528757e+00 0 0 0
195 1 3 3.7389592946152383e-01 3.2277335719254481e+00 5.3454762306460397e+00 9.0612746047318922e+00 0 0 0
196 1 3 3.7608701571050224e-01 8.8854756793140321e+00 6.8103779034158531e+00 2.9628369934801677e+00 0 0 0
197 1 3 3.6137258319248494e-01 2.3389249112909546e+01 6.4868332501954673e-01 1.7146604681648747e+00 0 0 0
198 1 3 3.5607588709497667e-01 2.5575348033910297e+00 1.0567906468517428e+01 9.5701980872967276e+00 0 0 0
199 1 3 3.6829443420781083e-01 9.2374748006635308e+00 1.1056178595237000e+01 7.1906070841402974e+00 0 0 0
200 1 3 3.8293387903316523e-01 3.6660503394836850e+00 1.1907630238335931e+00 3.1534559188391427e+00 0 0 0
201 1 3 3.5679638749075193e-01 1.5929302151360725e+01 6.5132690712186943e+00 3.2471061858802730e+00 0 0 0
202 1 3 3.5100765870410156e-01 1.0074043823495487e+01 4.7891707492285276e+00 7.0670869823036888e+00 0 0 0
203 1 3 3.5527865655070962e-01 1.6697360470280252e+01 4.9883466359633362e+00 9.2248890875202090e+00 0 0 0
204 1 3 3.9078626764736579e-01 2.2627642193347949e+01 6.3023862882100419e+00 1.7793945131657698e+00 0 0 0
205 1 3 3.6963977124200958e-01 1.0575253545433068e+01 1.1838810515651752e+00 1.8288424459411332e+00 0 0 0
206 1 3 3.4633488795602274e-01 1.5614376964401274e+01 1.0634725248986530e+01 8.6122619285697350e+00 0 0 0
207 1 3 3.7806128081356161e-01 2.2756262377837569e+01 1.0822522669114026e+01 7.1965692221075583e+00 0 0 0
208 1 3 3.5689828559149028e-01 1.6990498029439628e+01 6.5927726528055264e-01 3.8569790569036893e+00 0 0 0
209 1 3 3.3379178689949640e-01 2.6104106573385167e+01 4.2071535827747253e+00 5.2070523600557364e+00 -1 0 0
210 1 3 3.2013908968423116e-01 2.4874776788908527e+01 7.2393664761999768e+00 4.8345576966546222e+00 0 0 0
211 1 3 3.0740568725443607e-01 6.4458597729679710e+00 8.4090623821168933e+00 1.0594682700895412e+01 0 0 -1
212 1 3 3.6875611198399288e-01 7.1896853293541856e+00 4.9131867687886519e+00 1.0577621269661584e+01 0 0 0
213 1 3 3.1474595639542224e-01 2.5167056960926146e+01 1.0044213218820950e+01 1.0215718925843726e+01 0 0 0
214 1 3 3.4393346328613839e-01 2.6029244414732837e+01 2.1757484433140672e+00 1.0601963943643296e+01 -1 0 -1
215 1 3 3.4124872617633611e-01 6.0485879210666500e+00 2.4786633448638957e+00 5.6824859843856999e+00 0 0 0
216 1 3 3.6646379331772067e-01 5.3181197416383004e+00 1.0532495465768090e+01 5.7152769576418070e+00 0 0 0
217 1 3 3.3927178204563968e-01 1.3669096684193681e+01 4.2424867111383877e+00 5.5514785635264907e+00 0 0 0
218 1 3 3.4333772824042275e-01 1.2620123173273727e+01 7.5222538053663097e+00 5.9681798354352251e+00 0 0 0
219 1 3 3.3810306914919552e-01 1.9640984854417955e+01 7.5117668962255806e+00 1.0342614234652842e+01 0 0 -1
220 1 3 3.3095204958972418e-01 2.0469658785570338e+01 4.2928765825846948e+00 1.0180809082619998e+01 0 0 0
221 1 3 3.2318048144406425e-01 1.3444858987544535e+01 9.5260879244019847e+00 3.3196737805542725e-01 0 0 1
222 1 3 3.5380929867355992e-01 1.4266741275906186e+01 1.5049267071578307e+00 3.8126678224488403e-01 0 0 0
223 1 3 3.0499801348853950e-01 2.0944328047481335e+01 1.5122579928727715e+00 4.6537493124486575e+00 0 0 0
224 1 3 3.4289725476715627e-01 2.0063618425357795e+01 9.3103492978394016e+00 4.7899893305129346e+00 0 0 0
225 1 3 3.6253546146964510e-01 4.7835810461751775e-02 4.9652308529577924e+00 1.5542512447637096e+00 1 0 0
226 1 3 3.6892349073996850e-01 -1.5159220868807050e-01 6.6843995683371924e+00 8.4391563206804445e+00 0 0 0
227 1 3 3.5696461738069685e-01 6.3012124828190927e+00 6.8975416112432972e+00 6.9852622262350446e+00 0 0 0
228 1 3 3.7659590734045789e-01 5.4187211218253868e+00 6.1516866967579213e+00 3.0166641291072152e+00 0 0 0
229 1 3 3.5905712486596786e-01 4.2232570978045147e-01 1.0782380912569486e+01 3.1692829192329355e+00 0 0 0
230 1 3 3.7824421830501292e-01 1.1828615334485357e-01 6.4168294432778050e-01 6.9890795284444680e+00 1 0 0
231 1 3 3.5964573487228207e-01 6.2376008874293012e+00 1.3557288717010390e+00 9.2037296386060632e+00 0 0 0
232 1 3 3.5735853696986175e-01 7.4249283590621831e+00 5.4491608199808295e-01 2.4782638008112317e+00 0 1 0
233 1 3 3.4693051819796938e-01 1.2440940302930620e+01 5.0625534336716411e+00 2.2571862585451430e+00 0 0 0
234 1 3 3.4105778298193606e-01 1.2843656481171983e+01 6.1109144983063377e+00 9.3820730502311545e+00 0 0 0
235 1 3 3.7385345385038521e-01 1.9159694312199466e+01 6.6085196558420849e+00 7.0261075697665047e+00 0 0 0
236 1 3 3.3320134499615711e-01 1.9352284649570333e+01 4.7190107679649023e+00 3.2604172337054100e+00 0 0 0
237 1 3 3.4129110703528032e-01 1.3182256167165619e+01 1.0687571961784936e+01 4.0156436911270417e+00 0 0 0
238 1 3 3.5458147110683907e-01 1.2273959446361133e+01 7.6726521746427245e-01 7.7510735473844861e+00 0 0 0
239 1 3 3.5302040509539023e-01 1.9308385794012636e+01 8.3355101372965890e-01 8.1745213928247242e+00 0 0 0
240 1 3 3.7442072710624347e-01 1.9342787297184906e+01 1.0713943665426751e+01 1.3015838369454067e+00 0 0 0
241 1 4 -3.7387374632087345e-01 2.0843588232520682e+00 7.5850945598704183e+00 2.6013810639210893e+00 0 0 0
242 1 4 -3.5415945824362066e-01 2.3603241511059643e+01 4.3893766027135657e+00 7.8360507195508617e+00 0 0 0
243 1 4 -4.0795202918567469e-01 2.9643180549802359e+00 4.5384683910871102e+00 8.1242698231845498e+00 0 0 0
244 1 4 -4.3242351928960371e-01 8.3910462588651242e+00 7.5928038788644630e+00 3.8393356272213812e+00 0 0 0
245 1 4 -3.6916632794836440e-01 2.3773695744129448e+01 1.5335719284558946e+00 2.5948914077813532e+00 0 0 0
246 1 4 -2.9472999010097300e-01 2.5782687706560101e+00 9.7322111552350350e+00 8.6009236545591570e+00 0 0 0
247 1 4 -3.6051089902016276e-01 9.4443435133521518e+00 1.0260430440239578e+01 8.1952523189387652e+00 0 0 0
248 1 4 -4.6814447911788698e-01 3.7109785170749707e+00 2.1193781284766411e+00 2.2907749574441008e+00 0 0 0
249 1 4 -4.3107358314370520e-01 1.5612989880570446e+01 7.3965419327322692e+00 2.3500845806405075e+00 0 0 0
250 1 4 -3.8769049557662111e-01 9.9636817054909628e+00 3.8475312032571534e+00 7.9194503765641491e+00 0 0 0
251 1 4 -3.6927996650956907e-01 1.6764569415089383e+01 4.2625845867005463e+00 8.1442267713262151e+00 0 0 0
252 1 4 -3.6625474770918925e-01 2.2019323119022690e+01 7.0416513982861568e+00 2.6281349921039330e+00 0 0 0
253 1 4 -3.8609301195130141e-01 1.0663204238098050e+01 1.8994535757123832e+00 2.8779860429048654e+00 0 0 0
254 1 4 -3.5443476665595097e-01 1.4944990994378283e+01 9.8023699331963243e+00 7.8886204066732297e+00 0 0 0
255 1 4 -3.6628857006448945e-01 2.2091803234023736e+01 1.0021444891909606e+01 7.9474528747423818e+00 0 0 0
256 1 4 -3.1690182570088415e-01 1.6996182334607763e+01 1.5029350050095822e+00 2.8980483339940433e+00 0 0 0
257 1 4 -3.6778414088357703e-01 2.3243950710296035e+00 7.6096320879590857e+00 4.8171786172479605e+00 0 0 0
258 1 4 -4.0174938929887755e-01 2.2270636888857723e+01 4.7262148778053321e+00 6.1320761382866831e+00 0 0 0
259 1 4 -4.1099610704430595e-01 3.1795953764000977e+00 4.9588210803080095e+00 1.0296405835451614e+01 0 0 0
260 1 4 -3.3412701718563120e-01 9.4966252906108224e+00 7.1612205049601503e+00 1.9084111000485202e+00 0 0 0
261 1 4 -3.9541814976070888e-01 2.2722285332257151e+01 9.6685178169673103e-01 6.6013632759869123e-01 0 0 0
262 1 4 -3.6169642401564711e-01 2.9598751917728299e+00 9.9505232987126142e+00 1.7422570397158083e-01 0 0 1
263 1 4 -3.7464671628337420e-01 9.1219159857508885e+00 1.0545183224367353e+01 5.9967759526291040e+00 0 0 0
264 1 4 -3.2588635653078857e-01 3.2516320247388038e+00 1.3748720670102188e+00 4.3407160388829382e+00 0 0 0
265 1 4 -3.8903726840361974e-01 1.6500117494974663e+01 6.8379278645320545e+00 4.3342266182721012e+00 0 0 0
266 1 4 -3.1903917703223350e-01 9.8598956933555648e+00 4.5661626457570899e+00 5.8090589509230952e+00 0 0 0
267 1 4 -3.7817025852354846e-01 1.6599756737666933e+01 4.4783074658476076e+00 1.0385829794409677e+01 0 0 0
268 1 4 -3.9049623800610028e-01 2.3142274881918176e+01 6.7289809641680947e+00 7.0908637598802748e-01 0 0 0
269 1 4 -3.4849791381185902e-01 1.0381634562625020e+01 1.7832810772044076e+00 6.8331260970353447e-01 0 0 0
270 1 4 -3.7065443550926164e-01 1.6400887314770728e+01 1.0204032545518189e+01 9.5401186487853664e+00 0 0 0
271 1 4 -3.8539175511995594e-01 2.3305850604014754e+01 1.0443649839778683e+01 6.0734793418621216e+00 0 0 0
272 1 4 -3.5287120311208081e-01 1.6854109636277123e+01 1.0915208011140041e+00 5.0607689697528579e+00 0 0 0
273 1 4 -3.5358216274738519e-01 2.4966939397401109e+01 3.6797795994655802e+00 4.9608073346547332e+00 0 0 0
274 1 4 -2.9018720009707427e-01 2.6117984950620649e+01 7.3982817186590015e+00 4.5881297030380015e+00 -1 0 0
275 1 4 -3.2191352901000803e-01 7.4373723231771107e+00 9.1831679949321767e+00 1.0352204404375096e+01 0 0 -1
276 1 4 -3.7776161787163942e-01 6.1335089897851445e+00 4.8505629450359740e+00 9.8451434790401180e+00 0 0 0
277 1 4 -2.7627856682186563e-01 9.0918632513956710e-02 1.0149017418398433e+01 1.0136085013250286e+01 0 0 0
278 1 4 -3.1544143332487112e-01 2.4878110769243094e+01 2.2560590225956796e+00 9.9776559562053837e+00 0 0 -1
279 1 4 -3.6384160195435700e-01 4.9523003437517614e+00 2.9826877242158476e+00 6.0796455574771286e+00 0 0 0