ITEM: TIMESTEP
0
ITEM: NUMBER OF ATOMS
336
ITEM: BOX BOUNDS xy xz yz pp pp pp
0.0000000000000000e+00 2.6364000320399999e+01 0.0000000000000000e+00
0.0000000000000000e+00 1.1574000358599999e+01 0.0000000000000000e+00
0.0000000000000000e+00 1.0708999633800000e+01 0.0000000000000000e+00
ITEM: ATOMS id type xs ys zs
1 1 0.093533 0.355842 0.445797
2 1 0.906467 0.644158 0.554203
3 1 0.156467 0.644158 0.945797
4 1 0.343533 0.355842 0.0542032
5 1 0.906467 0.855842 0.0542032
6 1 0.093533 0.144158 0.945797
7 1 0.343533 0.144158 0.554203
8 1 0.156467 0.855842 0.445797
9 1 0.593533 0.355842 0.445797
10 1 0.406467 0.644158 0.554203
11 1 0.656467 0.644158 0.945797
12 1 0.843533 0.355842 0.0542032
13 1 0.406467 0.855842 0.0542032
14 1 0.593533 0.144158 0.945797
15 1 0.843533 0.144158 0.554203
16 1 0.656467 0.855842 0.445797
17 1 0.0241829 0.238223 0.339719
18 1 0.975817 0.761777 0.660281
19 1 0.225817 0.761777 0.83972
20 1 0.274183 0.238223 0.160281
21 1 0.975817 0.738223 0.160281
22 1 0.0241829 0.261777 0.83972
23 1 0.274183 0.261777 0.66028
24 1 0.225817 0.738223 0.339719
25 1 0.524183 0.238223 0.339719
26 1 0.475817 0.761777 0.66028
27 1 0.725817 0.761777 0.83972
28 1 0.774183 0.238223 0.160281
29 1 0.475817 0.738223 0.160281
30 1 0.524183 0.261777 0.83972
31 1 0.774183 0.261777 0.66028
32 1 0.725817 0.738223 0.33972
33 1 0.0754414 0.379753 0.208691
34 1 0.924559 0.620247 0.791309
35 1 0.174559 0.620247 0.708691
36 1 0.325441 0.379753 0.291309
37 1 0.924559 0.879752 0.29131
38 1 0.0754414 0.120247 0.708691
39 1 0.325441 0.120247 0.791309
40 1 0.174559 0.879753 0.208691
41 1 0.575441 0.379753 0.208691
42 1 0.424559 0.620247 0.791309
43 1 0.674559 0.620247 0.708691
44 1 0.825441 0.379753 0.29131
45 1 0.424559 0.879752 0.29131
46 1 0.575441 0.120247 0.708691
47 1 0.825441 0.120247 0.791309
48 1 0.674559 0.879753 0.208691
49 2 0.123671 0.29306 0.425065
50 2 0.876329 0.70694 0.574935
51 2 0.126329 0.70694 0.925065
52 2 0.373671 0.29306 0.0749354
53 2 0.876329 0.79306 0.0749354
54 2 0.123671 0.20694 0.925065
55 2 0.373671 0.20694 0.574935
56 2 0.126329 0.79306 0.425065
57 2 0.623671 0.29306 0.425065
58 2 0.376329 0.70694 0.574935
59 2 0.626329 0.70694 0.925065
60 2 0.873671 0.29306 0.0749354
61 2 0.376329 0.79306 0.0749354
62 2 0.623671 0.20694 0.925065
63 2 0.873671 0.20694 0.574935
64 2 0.626329 0.79306 0.425065
65 2 0.102556 0.407306 0.528824
66 2 0.897444 0.592694 0.471176
67 2 0.147444 0.592694 0.0288242
68 2 0.352556 0.407306 0.971176
69 2 0.897444 0.907306 0.971176
70 2 0.102556 0.0926944 0.0288242
71 2 0.352556 0.0926944 0.471176
72 2 0.147444 0.907306 0.528824
73 2 0.602556 0.407306 0.528824
74 2 0.397444 0.592694 0.471176
75 2 0.647444 0.592694 0.0288242
76 2 0.852556 0.407306 0.971176
77 2 0.397444 0.907306 0.971176
78 2 0.602556 0.0926944 0.0288242
79 2 0.852556 0.0926944 0.471176
80 2 0.647444 0.907306 0.528824
81 2 0.985602 0.207077 0.353964
82 2 0.0143982 0.792923 0.646036
83 2 0.264398 0.792923 0.853964
84 2 0.235602 0.207077 0.146036
85 2 0.0143982 0.707077 0.146036
86 2 0.985602 0.292923 0.853964
87 2 0.235602 0.292923 0.646036
88 2 0.264398 0.707077 0.353964
89 2 0.485602 0.207077 0.353964
90 2 0.514398 0.792923 0.646037
91 2 0.764398 0.792923 0.853964
92 2 0.735602 0.207077 0.146036
93 2 0.514398 0.707077 0.146036
94 2 0.485602 0.292923 0.853964
95 2 0.735602 0.292923 0.646037
96 2 0.764398 0.707077 0.353964
97 2 0.0497521 0.166222 0.318931
98 2 0.950248 0.833778 0.681069
99 2 0.200248 0.833778 0.818931
100 2 0.299752 0.166222 0.181069
101 2 0.950248 0.666222 0.181069
102 2 0.0497521 0.333778 0.818931
103 2 0.299752 0.333778 0.681069
104 2 0.200248 0.666222 0.318931
105 2 0.549752 0.166222 0.318931
106 2 0.450248 0.833778 0.681069
107 2 0.700248 0.833778 0.818931
108 2 0.799752 0.166222 0.181069
109 2 0.450248 0.666222 0.181069
110 2 0.549752 0.333778 0.818931
111 2 0.799752 0.333778 0.681069
112 2 0.700248 0.666222 0.318931
113 2 0.105288 0.316845 0.186979
114 2 0.894712 0.683155 0.813021
115 2 0.144712 0.683155 0.686979
116 2 0.355288 0.316845 0.313021
117 2 0.894712 0.816845 0.313021
118 2 0.105288 0.183155 0.686979
119 2 0.355288 0.183155 0.813021
120 2 0.144712 0.816845 0.186979
121 2 0.605288 0.316845 0.186979
122 2 0.394712 0.683155 0.813021
123 2 0.644712 0.683155 0.686979
124 2 0.855288 0.316845 0.313021
125 2 0.394712 0.816845 0.313021
126 2 0.605288 0.183155 0.686979
127 2 0.855288 0.183155 0.813021
128 2 0.644712 0.816845 0.186979
129 2 0.0730435 0.445638 0.135358
130 2 0.926957 0.554362 0.864642
131 2 0.176957 0.554362 0.635358
132 2 0.323043 0.445638 0.364642
133 2 0.926957 0.945638 0.364642
134 2 0.0730435 0.0543624 0.635358
135 2 0.323043 0.0543624 0.864642
136 2 0.176957 0.945638 0.135358
137 2 0.573043 0.445638 0.135358
138 2 0.426957 0.554362 0.864642
139 2 0.676957 0.554362 0.635358
140 2 0.823043 0.445638 0.364642
141 2 0.426957 0.945638 0.364642
142 2 0.573043 0.0543624 0.635358
143 2 0.823043 0.0543624 0.864642
144 2 0.676957 0.945638 0.135358
145 3 0.0881557 0.432694 0.333106
146 3 0.911844 0.567306 0.666894
147 3 0.161844 0.567306 0.833106
148 3 0.338156 0.432694 0.166894
149 3 0.911844 0.932694 0.166894
150 3 0.0881557 0.0673064 0.833106
151 3 0.338156 0.0673065 0.666894
152 3 0.161844 0.932694 0.333106
153 3 0.588156 0.432694 0.333106
154 3 0.411844 0.567306 0.666894
155 3 0.661844 0.567306 0.833106
156 3 0.838156 0.432694 0.166894
157 3 0.411844 0.932694 0.166894
158 3 0.588156 0.0673064 0.833106
159 3 0.838156 0.0673065 0.666894
160 3 0.661844 0.932694 0.333106
161 3 0.0462648 0.282168 0.461313
162 3 0.953735 0.717832 0.538687
163 3 0.203735 0.717832 0.961313
164 3 0.296265 0.282168 0.0386874
165 3 0.953735 0.782168 0.0386873
166 3 0.0462648 0.217832 0.961313
167 3 0.296265 0.217832 0.538687
168 3 0.203735 0.782168 0.461313
169 3 0.546265 0.282168 0.461313
170 3 0.453735 0.717832 0.538687
171 3 0.703735 0.717832 0.961313
172 3 0.796265 0.282168 0.0386874
173 3 0.453735 0.782168 0.0386873
174 3 0.546265 0.217832 0.961313
175 3 0.796265 0.217832 0.538687
176 3 0.703735 0.782168 0.461313
177 3 0.0273882 0.307814 0.22023
178 3 0.972612 0.692186 0.77977
179 3 0.222612 0.692186 0.72023
180 3 0.277388 0.307814 0.27977
181 3 0.972612 0.807814 0.27977
182 3 0.0273882 0.192186 0.72023
183 3 0.277388 0.192186 0.77977
184 3 0.222612 0.807814 0.22023
185 3 0.527388 0.307814 0.22023
186 3 0.472612 0.692186 0.77977
187 3 0.722612 0.692186 0.72023
188 3 0.777388 0.307814 0.27977
189 3 0.472612 0.807814 0.27977
190 3 0.527388 0.192186 0.72023
191 3 0.777388 0.192186 0.77977
192 3 0.722612 0.807814 0.22023
193 3 0.115702 0.547585 0.334703
194 3 0.884298 0.452415 0.665297
195 3 0.134298 0.452415 0.834703
196 3 0.365702 0.547585 0.165297
197 3 0.884298 0.0475854 0.165297
198 3 0.115702 0.952415 0.834703
199 3 0.365702 0.952415 0.665297
200 3 0.134298 0.0475853 0.334703
201 3 0.615702 0.547585 0.334703
202 3 0.384298 0.452415 0.665297
203 3 0.634298 0.452415 0.834703
204 3 0.865702 0.547585 0.165297
205 3 0.384298 0.0475854 0.165297
206 3 0.615702 0.952415 0.834703
207 3 0.865702 0.952415 0.665297
208 3 0.634298 0.0475853 0.334703
209 3 0.00590059 0.353427 0.532538
210 3 0.994099 0.646573 0.467462
211 3 0.244099 0.646573 0.0325378
212 3 0.255901 0.353427 0.967462
213 3 0.994099 0.853427 0.967462
214 3 0.00590059 0.146573 0.0325378
215 3 0.255901 0.146573 0.467462
216 3 0.244099 0.853427 0.532538
217 3 0.505901 0.353427 0.532538
218 3 0.494099 0.646573 0.467462
219 3 0.744099 0.646573 0.0325378
220 3 0.755901 0.353427 0.967462
221 3 0.494099 0.853427 0.967462
222 3 0.505901 0.146573 0.0325378
223 3 0.755901 0.146573 0.467462
224 3 0.744099 0.853427 0.532538
225 3 0.980994 0.388544 0.205463
226 3 0.0190057 0.611456 0.794537
227 3 0.269006 0.611456 0.705463
228 3 0.230994 0.388544 0.294537
229 3 0.0190057 0.888544 0.294537
230 3 0.980994 0.111456 0.705463
231 3 0.230994 0.111456 0.794537
232 3 0.269006 0.888544 0.205463
233 3 0.480994 0.388544 0.205463
234 3 0.519006 0.611456 0.794537
235 3 0.769006 0.611456 0.705463
236 3 0.730994 0.388544 0.294537
237 3 0.519006 0.888544 0.294537
238 3 0.480994 0.111456 0.705463
239 3 0.730994 0.111456 0.794537
240 3 0.769006 0.888544 0.205463
241 4 0.116217 0.6064 0.233809
242 4 0.883783 0.3936 0.766191
243 4 0.133783 0.3936 0.733809
244 4 0.366217 0.6064 0.266191
245 4 0.883783 0.1064 0.266191
246 4 0.116217 0.8936 0.733809
247 4 0.366217 0.8936 0.766191
248 4 0.133783 0.1064 0.233809
249 4 0.616217 0.6064 0.233809
250 4 0.383783 0.3936 0.766191
251 4 0.633783 0.3936 0.733809
252 4 0.866217 0.6064 0.266191
253 4 0.383783 0.1064 0.266191
254 4 0.616217 0.8936 0.733809
255 4 0.866217 0.8936 0.766191
256 4 0.633783 0.1064 0.233809
257 4 0.135704 0.580011 0.437481
258 4 0.864296 0.419989 0.562519
259 4 0.114296 0.419989 0.937481
260 4 0.385704 0.580011 0.0625194
261 4 0.864296 0.0800105 0.0625194
262 4 0.135704 0.919989 0.937481
263 4 0.385704 0.919989 0.562519
264 4 0.114296 0.0800105 0.437481
265 4 0.635704 0.580011 0.437481
266 4 0.364296 0.419989 0.562519
267 4 0.614296 0.419989 0.937481
268 4 0.885704 0.580011 0.0625194
269 4 0.364296 0.0800105 0.0625194
270 4 0.635704 0.919989 0.937481
271 4 0.885704 0.919989 0.562519
272 4 0.614296 0.0800105 0.437481
273 4 0.96043 0.316361 0.531409
274 4 0.0395697 0.683639 0.468591
275 4 0.28957 0.683639 0.031409
276 4 0.21043 0.316361 0.968591
277 4 0.0395697 0.816361 0.968591
278 4 0.96043 0.183639 0.031409
279 4 0.21043 0.183639 0.468591
280 4 0.28957 0.816361 0.531409
281 4 0.46043 0.316361 0.531409
282 4 0.53957 0.683639 0.468591
283 4 0.78957 0.683639 0.031409
284 4 0.71043 0.316361 0.968591
285 4 0.53957 0.816361 0.968591
286 4 0.46043 0.183639 0.031409
287 4 0.71043 0.183639 0.468591
288 4 0.78957 0.816361 0.531409
289 4 0.0205568 0.432675 0.606993
290 4 0.979443 0.567324 0.393007
291 4 0.229443 0.567325 0.106993
292 4 0.270557 0.432676 0.893007
293 4 0.979443 0.932676 0.893007
294 4 0.0205568 0.0673245 0.106993
295 4 0.270557 0.0673245 0.393007
296 4 0.229443 0.932675 0.606993
297 4 0.520557 0.432675 0.606993
298 4 0.479443 0.567325 0.393007
299 4 0.729443 0.567325 0.106993
300 4 0.770557 0.432676 0.893007
301 4 0.479443 0.932675 0.893007
302 4 0.520557 0.0673245 0.106993
303 4 0.770557 0.0673245 0.393007
304 4 0.729443 0.932675 0.606993
305 4 0.938702 0.356397 0.250714
306 4 0.0612976 0.643603 0.749286
307 4 0.311298 0.643603 0.750714
308 4 0.188702 0.356397 0.249286
309 4 0.0612976 0.856397 0.249286
310 4 0.938702 0.143603 0.750714
311 4 0.188702 0.143603 0.749286
312 4 0.311298 0.856397 0.250714
313 4 0.438702 0.356397 0.250714
314 4 0.561298 0.643603 0.749286
315 4 0.811298 0.643603 0.750714
316 4 0.688702 0.356397 0.249286
317 4 0.561298 0.856397 0.249286
318 4 0.438702 0.143603 0.750714
319 4 0.688702 0.143603 0.749286
320 4 0.811298 0.856397 0.250714
321 4 0.985227 0.477006 0.135281
322 4 0.0147726 0.522994 0.864719
323 4 0.264773 0.522994 0.635281
324 4 0.235227 0.477006 0.364719
325 4 0.0147726 0.977006 0.364719
326 4 0.985227 0.0229936 0.635281
327 4 0.235227 0.0229936 0.864719
328 4 0.264773 0.977006 0.135281
329 4 0.485227 0.477006 0.135281
330 4 0.514773 0.522994 0.864719
331 4 0.764773 0.522994 0.635281
332 4 0.735227 0.477006 0.364719
333 4 0.514773 0.977006 0.364719
334 4 0.485227 0.0229937 0.635281
335 4 0.735227 0.0229936 0.864719
336 4 0.764773 0.977006 0.135281
ITEM: TIMESTEP
1000
ITEM: NUMBER OF ATOMS
336
ITEM: BOX BOUNDS xy xz yz pp pp pp
-2.4543976982373675e-01 2.6513181939292288e+01 -8.7255739954845549e-02
-1.5443316105276211e-01 1.1709645729299456e+01 -9.0024109765809209e-03
-3.8533476581199899e-01 1.1094334399612029e+01 -1.8787790353309422e-02
ITEM: ATOMS id type xs ys zs
1 1 0.0955932 0.360009 0.429952
2 1 0.917464 0.600619 0.528436
3 1 0.177851 0.599447 0.969831
4 1 0.359197 0.349999 0.0961262
5 1 0.903038 0.896361 0.0616185
6 1 0.0960452 0.09178 0.946753
7 1 0.335686 0.0748789 0.543763
8 1 0.158678 0.922848 0.503698
9 1 0.604833 0.372283 0.421024
10 1 0.409378 0.637665 0.542934
11 1 0.657435 0.59844 0.969416
12 1 0.84478 0.434979 0.0445568
13 1 0.39396 0.883359 0.0647826
14 1 0.600743 0.140029 0.924562
15 1 0.832901 0.0888469 0.541005
16 1 0.643984 0.840293 0.444036
17 1 0.0218183 0.267643 0.315009
18 1 0.96535 0.736938 0.666524
19 1 0.23194 0.723714 0.824819
20 1 0.276394 0.262489 0.162224
21 1 0.975349 0.801485 0.156588
22 1 0.0305318 0.212435 0.827195
23 1 0.290969 0.216375 0.683725
24 1 0.202029 0.768964 0.379649
25 1 0.53527 0.250339 0.33076
26 1 0.478097 0.73866 0.667994
27 1 0.710261 0.730819 0.842872
28 1 0.788598 0.284898 0.148468
29 1 0.45625 0.74786 0.153864
30 1 0.522407 0.215271 0.828665
31 1 0.780304 0.237842 0.654098
32 1 0.715752 0.755053 0.326348
33 1 0.083364 0.400276 0.207848
34 1 0.912152 0.571705 0.749437
35 1 0.154238 0.618254 0.756546
36 1 0.321958 0.402889 0.295238
37 1 0.940244 0.975556 0.249417
38 1 0.0904851 0.0813168 0.719815
39 1 0.333437 0.0435923 0.763058
40 1 0.158202 0.931263 0.276486
41 1 0.57743 0.400967 0.203623
42 1 0.410731 0.622688 0.76783
43 1 0.660178 0.577726 0.739675
44 1 0.827417 0.444274 0.271377
45 1 0.410281 0.882118 0.291375
46 1 0.572908 0.0679416 0.720023
47 1 0.848721 0.123937 0.76538
48 1 0.653602 0.879388 0.22432
49 2 0.127613 0.303243 0.435221
50 2 0.891795 0.623539 0.460679
51 2 0.161371 0.608267 0.055389
52 2 0.38405 0.275872 0.104546
53 2 0.869328 0.841846 0.0632272
54 2 0.124326 0.125413 0.00311594
55 2 0.36424 0.0970554 0.477144
56 2 0.128025 0.906737 0.560589
57 2 0.640616 0.326783 0.437008
58 2 0.378191 0.693486 0.508068
59 2 0.628278 0.617278 0.0301303
60 2 0.878349 0.408372 0.996499
61 2 0.359251 0.871203 0.0151217
62 2 0.630961 0.203976 0.934088
63 2 0.854598 0.0673426 0.460669
64 2 0.613854 0.782907 0.471374
65 2 0.0994894 0.412056 0.507881
66 2 0.940462 0.536023 0.484495
67 2 0.197278 0.51936 0.985969
68 2 0.374413 0.395707 0.0243825
69 2 0.896811 0.941515 0.98103
70 2 0.084368 0.0157071 0.995982
71 2 0.312494 0.0157612 0.487142
72 2 0.178279 0.994121 0.546499
73 2 0.608939 0.436969 0.492541
74 2 0.411886 0.579143 0.467952
75 2 0.674048 0.527795 0.020608
76 2 0.831551 0.504016 0.988325
77 2 0.405335 0.965932 0.0302063
78 2 0.609632 0.0885257 0.0029528
79 2 0.80384 0.0202758 0.543142
80 2 0.644401 0.905762 0.515247
81 2 0.97938 0.263807 0.326685
82 2 0.0021485 0.783473 0.67424
83 2 0.272371 0.719601 0.81186
84 2 0.238232 0.252176 0.125817
85 2 0.0109766 0.756792 0.139488
86 2 0.989923 0.215428 0.829564
87 2 0.257744 0.268211 0.689403
88 2 0.238047 0.725562 0.384689
89 2 0.498739 0.223811 0.355523
90 2 0.519793 0.741843 0.670119
91 2 0.747641 0.777351 0.843506
92 2 0.749952 0.256319 0.137444
93 2 0.494046 0.722898 0.130434
94 2 0.482746 0.228473 0.847289
95 2 0.740011 0.239519 0.65812
96 2 0.756577 0.757032 0.326315
97 2 0.0312693 0.183423 0.293792
98 2 0.93803 0.803581 0.676808
99 2 0.228224 0.814284 0.821047
100 2 0.286573 0.174773 0.194434
101 2 0.952343 0.73578 0.198719
102 2 0.0401992 0.30303 0.812648
103 2 0.320608 0.279248 0.692071
104 2 0.174153 0.697847 0.377261
105 2 0.557339 0.172942 0.314825
106 2 0.471708 0.826383 0.686962
107 2 0.687461 0.804663 0.831127
108 2 0.805971 0.200139 0.16069
109 2 0.437893 0.664924 0.176189
110 2 0.533998 0.298577 0.803817
111 2 0.792204 0.328061 0.647981
112 2 0.70924 0.667584 0.305032
113 2 0.11026 0.362208 0.150913
114 2 0.881246 0.607458 0.799496
115 2 0.129825 0.691434 0.736939
116 2 0.342715 0.359034 0.362478
117 2 0.931071 0.00899589 0.335169
118 2 0.116714 0.121647 0.662029
119 2 0.356271 0.0341277 0.841968
120 2 0.130233 0.899611 0.221752
121 2 0.605132 0.365386 0.141922
122 2 0.384862 0.688126 0.797031
123 2 0.629632 0.626653 0.698732
124 2 0.855856 0.434609 0.340443
125 2 0.384114 0.843952 0.355608
126 2 0.589042 0.0573115 0.633437
127 2 0.88027 0.175787 0.798191
128 2 0.627229 0.822727 0.177315
129 2 0.0773292 0.476696 0.152011
130 2 0.920662 0.487855 0.784477
131 2 0.140692 0.559904 0.689163
132 2 0.313557 0.478857 0.342365
133 2 0.963641 0.0443174 0.214607
134 2 0.0827127 0.00154622 0.674652
135 2 0.313231 0.961386 0.77366
136 2 0.169966 0.00590478 0.226885
137 2 0.564313 0.483188 0.165097
138 2 0.407346 0.552004 0.830188
139 2 0.664503 0.499613 0.688193
140 2 0.8117 0.520015 0.306013
141 2 0.421883 0.95543 0.342417
142 2 0.552328 0.987352 0.72835
143 2 0.847417 0.0542682 0.829899
144 2 0.65549 0.959825 0.171008
145 3 0.103136 0.434237 0.32468
146 3 0.89068 0.549171 0.628131
147 3 0.140551 0.573612 0.874436
148 3 0.358919 0.427634 0.198986
149 3 0.896739 0.97037 0.168779
150 3 0.11666 0.0546534 0.831618
151 3 0.361936 0.0266894 0.652925
152 3 0.137143 0.970167 0.393223
153 3 0.611089 0.431632 0.306349
154 3 0.390046 0.58425 0.650199
155 3 0.636779 0.552343 0.856325
156 3 0.856252 0.479708 0.165719
157 3 0.378309 0.915082 0.187815
158 3 0.610484 0.0691624 0.81873
159 3 0.863172 0.0700018 0.653145
160 3 0.631174 0.910341 0.340066
161 3 0.0482587 0.289764 0.429792
162 3 0.954113 0.698869 0.543352
163 3 0.219167 0.686335 0.947242
164 3 0.311804 0.285876 0.0635777
165 3 0.950109 0.830247 0.04404
166 3 0.0538099 0.175521 0.943627
167 3 0.300606 0.171378 0.562141
168 3 0.194859 0.828024 0.494889
169 3 0.559709 0.298403 0.43829
170 3 0.458917 0.699335 0.550994
171 3 0.697735 0.688768 0.962594
172 3 0.805896 0.342953 0.0373723
173 3 0.435369 0.801109 0.045297
174 3 0.549961 0.193234 0.941366
175 3 0.797484 0.186576 0.540464
176 3 0.694084 0.781747 0.444381
177 3 0.0314873 0.340954 0.21197
178 3 0.954319 0.653908 0.76247
179 3 0.206657 0.655661 0.731681
180 3 0.274817 0.336199 0.267344
181 3 0.976737 0.880438 0.259165
182 3 0.0444115 0.154306 0.717581
183 3 0.295714 0.135982 0.782857
184 3 0.196372 0.841195 0.27007
185 3 0.535507 0.318622 0.218355
186 3 0.461971 0.674931 0.776043
187 3 0.705824 0.655614 0.737904
188 3 0.78808 0.352248 0.257021
189 3 0.453615 0.806502 0.272317
190 3 0.528052 0.146204 0.721062
191 3 0.798217 0.184754 0.763331
192 3 0.704335 0.825549 0.222279
193 3 0.104861 0.562625 0.351825
194 3 0.884488 0.420172 0.605663
195 3 0.126143 0.447401 0.871579
196 3 0.367733 0.555 0.172052
197 3 0.882623 0.0934879 0.139191
198 3 0.130799 0.92896 0.839192
199 3 0.368014 0.898886 0.63665
200 3 0.136873 0.098976 0.396351
201 3 0.613172 0.560192 0.328338
202 3 0.384903 0.453838 0.64079
203 3 0.627358 0.424628 0.871559
204 3 0.866597 0.608287 0.170538
205 3 0.372674 0.0425016 0.191006
206 3 0.619662 0.944709 0.854955
207 3 0.875295 0.941578 0.661455
208 3 0.63413 0.039565 0.368322
209 3 0.0102669 0.3509 0.507677
210 3 0.00152601 0.68621 0.467991
211 3 0.267229 0.655613 0.0124003
212 3 0.28235 0.343245 0.964817
213 3 0.987565 0.891952 0.961583
214 3 0.0125358 0.141803 0.0287007
215 3 0.253441 0.166669 0.483578
216 3 0.246408 0.847471 0.553855
217 3 0.517962 0.349749 0.513317
218 3 0.501783 0.638569 0.48263
219 3 0.747007 0.65492 0.0277668
220 3 0.759507 0.376852 0.96544
221 3 0.478918 0.853807 0.975809
222 3 0.515878 0.130475 0.0276098
223 3 0.750241 0.162761 0.464988
224 3 0.734793 0.847694 0.513318
225 3 0.990163 0.429289 0.197565
226 3 0.00303158 0.591719 0.796221
227 3 0.242503 0.558902 0.690373
228 3 0.228484 0.413808 0.267679
229 3 0.0313267 0.92507 0.272508
230 3 0.997743 0.085675 0.676603
231 3 0.244504 0.0879546 0.823959
232 3 0.247845 0.888786 0.230499
233 3 0.483945 0.375184 0.200939
234 3 0.501691 0.585145 0.804004
235 3 0.754936 0.600224 0.70463
236 3 0.733801 0.391999 0.286939
237 3 0.502476 0.871327 0.298329
238 3 0.479415 0.0769215 0.701581
239 3 0.755109 0.110136 0.813798
240 3 0.745239 0.918275 0.206053
241 4 0.0973033 0.636912 0.272887
242 4 0.887303 0.356276 0.696251
243 4 0.109553 0.399609 0.778606
244 4 0.369434 0.622979 0.257311
245 4 0.886742 0.169339 0.218746
246 4 0.13718 0.869111 0.748655
247 4 0.365384 0.836907 0.72767
248 4 0.134685 0.150023 0.297461
249 4 0.610534 0.624754 0.236802
250 4 0.399266 0.38806 0.722359
251 4 0.629837 0.360908 0.781936
252 4 0.868849 0.658427 0.269573
253 4 0.382038 0.0965934 0.28521
254 4 0.614127 0.867549 0.777402
255 4 0.877104 0.895617 0.761126
256 4 0.631162 0.112932 0.287415
257 4 0.118527 0.593472 0.454407
258 4 0.859156 0.388501 0.515836
259 4 0.124769 0.398527 0.969556
260 4 0.386771 0.581706 0.0730139
261 4 0.858387 0.116683 0.0471281
262 4 0.151658 0.894794 0.935126
263 4 0.386177 0.855005 0.542831
264 4 0.133262 0.154922 0.492618
265 4 0.633759 0.59341 0.422112
266 4 0.362957 0.409432 0.553337
267 4 0.609936 0.386401 0.968492
268 4 0.883965 0.657799 0.0806902
269 4 0.359691 0.0925401 0.0953072
270 4 0.644332 0.923583 0.948997
271 4 0.880912 0.885993 0.566367
272 4 0.625774 0.0676045 0.473612
273 4 0.963149 0.341636 0.488322
274 4 0.0411225 0.744809 0.492093
275 4 0.308546 0.708221 0.985892
276 4 0.236619 0.318714 0.94571
277 4 0.0343675 0.864329 0.962262
278 4 0.96794 0.181307 0.0105925
279 4 0.224522 0.252738 0.478336
280 4 0.285019 0.797322 0.517497
281 4 0.473072 0.318264 0.495455
282 4 0.546874 0.659849 0.514615
283 4 0.786458 0.715729 0.0113691
284 4 0.720097 0.315597 0.973432
285 4 0.524075 0.822049 0.992248
286 4 0.468296 0.126473 0.0049579
287 4 0.710769 0.224063 0.472828
288 4 0.779372 0.851671 0.473446
289 4 0.0248783 0.399762 0.603369
290 4 0.997632 0.635742 0.368704
291 4 0.261147 0.614559 0.114634
292 4 0.305838 0.408378 0.894385
293 4 0.972628 0.957498 0.88162
294 4 0.0218594 0.0809225 0.117615
295 4 0.252298 0.0956086 0.400081
296 4 0.246872 0.896213 0.653178
297 4 0.527542 0.419315 0.596668
298 4 0.491979 0.599439 0.380918
299 4 0.743371 0.582356 0.109705
300 4 0.764878 0.448843 0.885584
301 4 0.467773 0.907807 0.882502
302 4 0.531793 0.091716 0.124587
303 4 0.753644 0.0828521 0.390539
304 4 0.722224 0.890733 0.61131
305 4 0.9451 0.403343 0.231248
306 4 0.0454467 0.644304 0.792743
307 4 0.288521 0.58179 0.667663
308 4 0.187392 0.374713 0.22163
309 4 0.0650503 0.868575 0.21883
310 4 0.953914 0.123873 0.697533
311 4 0.20274 0.133556 0.801721
312 4 0.287719 0.830267 0.240405
313 4 0.446378 0.301974 0.203034
314 4 0.548654 0.611688 0.800262
315 4 0.796027 0.656901 0.719499
316 4 0.696812 0.324813 0.270048
317 4 0.54429 0.837034 0.257016
318 4 0.437306 0.121329 0.73181
319 4 0.709275 0.129296 0.792078
320 4 0.791446 0.891758 0.221894
321 4 0.997654 0.515227 0.134337
322 4 0.00074412 0.487936 0.82856
323 4 0.223068 0.469223 0.646729
324 4 0.228219 0.5023 0.332383
325 4 0.0418806 0.00376492 0.345122
326 4 0.0031993 0.0126061 0.593267
327 4 0.245043 0.0181217 0.909665
328 4 0.246253 0.965032 0.150799
329 4 0.481065 0.467731 0.146751
330 4 0.48859 0.498387 0.862027
331 4 0.755286 0.518173 0.633529
332 4 0.729646 0.471833 0.362586
333 4 0.502779 0.94644 0.379131
334 4 0.480136 0.992662 0.632189
335 4 0.768733 0.0288655 0.880732
336 4 0.734649 0.0154397 0.168894
ITEM: TIMESTEP
2000
ITEM: NUMBER OF ATOMS
336
ITEM: BOX BOUNDS xy xz yz pp pp pp
-7.9907681433358280e-01 2.7008733656189026e+01 7.9813953645133745e-02
1.0940413962064888e-01 1.1644667131086480e+01 -2.3415743218965943e-01
-6.0646275471065270e-01 1.1315462388510664e+01 1.8007091210712534e-01
ITEM: ATOMS id type xs ys zs
1 1 0.100914 0.374532 0.437839
2 1 0.900958 0.67161 0.567644
3 1 0.171273 0.644528 0.937473
4 1 0.368141 0.317613 0.117366
5 1 0.895657 0.891592 0.0848013
6 1 0.0777421 0.11412 0.956541
7 1 0.350641 0.121426 0.595036
8 1 0.147589 0.865018 0.457545
9 1 0.621158 0.305 0.422819
10 1 0.403398 0.64772 0.582436
11 1 0.63695 0.678498 0.881009
12 1 0.867454 0.37176 0.0813295
13 1 0.375631 0.810354 0.0960321
14 1 0.613008 0.136403 0.921402
15 1 0.838462 0.177046 0.586269
16 1 0.63766 0.809252 0.376587
17 1 0.034963 0.300887 0.300825
18 1 0.968096 0.734514 0.700687
19 1 0.213262 0.718676 0.757714
20 1 0.277054 0.291475 0.163278
21 1 0.972899 0.771427 0.153845
22 1 0.0282197 0.240884 0.807397
23 1 0.276175 0.21665 0.699563
24 1 0.211131 0.746882 0.351941
25 1 0.535018 0.256802 0.338042
26 1 0.461729 0.703612 0.744348
27 1 0.7108 0.743387 0.772176
28 1 0.798106 0.258687 0.178891
29 1 0.459823 0.74194 0.193673
30 1 0.538819 0.236377 0.819223
31 1 0.769469 0.209944 0.720965
32 1 0.717277 0.810518 0.277315
33 1 0.107608 0.422278 0.233023
34 1 0.896419 0.611625 0.775403
35 1 0.139844 0.583902 0.742342
36 1 0.337543 0.383604 0.309939
37 1 0.935269 0.93507 0.279822
38 1 0.0978793 0.105477 0.74295
39 1 0.328705 0.0511103 0.795761
40 1 0.157398 0.89989 0.242986
41 1 0.599321 0.360712 0.21803
42 1 0.392703 0.549062 0.778077
43 1 0.650671 0.591937 0.686623
44 1 0.852093 0.393821 0.290429
45 1 0.397711 0.889855 0.288158
46 1 0.593088 0.0863015 0.715796
47 1 0.844106 0.0882346 0.788095
48 1 0.640253 0.90458 0.188002
49 2 0.122899 0.298446 0.467315
50 2 0.874248 0.721265 0.521586
51 2 0.147318 0.708673 0.976929
52 2 0.392935 0.241071 0.127626
53 2 0.859242 0.852999 0.0693808
54 2 0.0983931 0.139477 0.0284315
55 2 0.384246 0.165728 0.582781
56 2 0.115812 0.814806 0.481659
57 2 0.645071 0.22593 0.411305
58 2 0.375578 0.71432 0.581683
59 2 0.60941 0.743748 0.887177
60 2 0.901221 0.32233 0.0681616
61 2 0.354242 0.7353 0.125126
62 2 0.643722 0.197861 0.918378
63 2 0.867351 0.242049 0.566631
64 2 0.619982 0.72467 0.340659
65 2 0.096154 0.42895 0.509146
66 2 0.913252 0.607604 0.505022
67 2 0.18822 0.594207 0.00681333
68 2 0.38505 0.366641 0.049312
69 2 0.901395 0.960463 0.0199824
70 2 0.0598886 0.0350517 0.991211
71 2 0.352047 0.0797654 0.514026
72 2 0.149125 0.928537 0.530096
73 2 0.630149 0.339807 0.507838
74 2 0.407962 0.615307 0.496947
75 2 0.637678 0.640762 0.966751
76 2 0.870246 0.428932 0.00717613
77 2 0.362624 0.834241 0.0133848
78 2 0.615843 0.0859789 0.00225759
79 2 0.836196 0.127766 0.504954
80 2 0.626733 0.82127 0.464515
81 2 0.994858 0.300179 0.290676
82 2 0.00795023 0.73135 0.699041
83 2 0.250088 0.703196 0.732113
84 2 0.242054 0.320221 0.122325
85 2 0.00866759 0.757983 0.111112
86 2 0.988937 0.252134 0.794443
87 2 0.238053 0.211971 0.668344
88 2 0.249893 0.727567 0.359542
89 2 0.502354 0.296472 0.370523
90 2 0.501427 0.706839 0.761892
91 2 0.75091 0.735173 0.7967
92 2 0.758866 0.252078 0.156859
93 2 0.498458 0.751525 0.173001
94 2 0.499649 0.247455 0.83687
95 2 0.731362 0.186828 0.703519
96 2 0.751533 0.852022 0.301403
97 2 0.0459792 0.2083 0.277024
98 2 0.958719 0.82129 0.734804
99 2 0.200993 0.809818 0.732519
100 2 0.273755 0.196431 0.189252
101 2 0.962261 0.683473 0.183975
102 2 0.0440966 0.327962 0.795468
103 2 0.281422 0.308551 0.726638
104 2 0.196493 0.658385 0.344386
105 2 0.525875 0.164273 0.319458
106 2 0.447322 0.783022 0.778201
107 2 0.703325 0.829011 0.73555
108 2 0.812091 0.173601 0.203426
109 2 0.455922 0.653248 0.231227
110 2 0.548683 0.319389 0.782435
111 2 0.771217 0.297159 0.761174
112 2 0.727633 0.72954 0.242863
113 2 0.130227 0.350957 0.209427
114 2 0.875428 0.668633 0.828638
115 2 0.111506 0.650969 0.724797
116 2 0.348045 0.301083 0.354187
117 2 0.916186 0.920556 0.359756
118 2 0.127861 0.162767 0.723508
119 2 0.353736 0.0446069 0.868597
120 2 0.130306 0.866833 0.18476
121 2 0.617034 0.293454 0.171505
122 2 0.362232 0.59499 0.815373
123 2 0.627857 0.637086 0.616663
124 2 0.879596 0.329883 0.324474
125 2 0.372468 0.850143 0.349645
126 2 0.612467 0.163282 0.680704
127 2 0.863879 0.158104 0.834203
128 2 0.622962 0.836377 0.138419
129 2 0.113286 0.500769 0.175212
130 2 0.892307 0.52813 0.817249
131 2 0.131041 0.500203 0.709458
132 2 0.33715 0.451445 0.371986
133 2 0.953913 0.0195089 0.290807
134 2 0.101987 0.0273383 0.692856
135 2 0.313031 0.960453 0.792137
136 2 0.161932 0.985088 0.203957
137 2 0.599474 0.436982 0.156549
138 2 0.391999 0.46069 0.812167
139 2 0.659608 0.497776 0.658189
140 2 0.847828 0.467567 0.346052
141 2 0.404688 0.977973 0.322859
142 2 0.594617 0.0202913 0.650058
143 2 0.85137 0.00653892 0.837536
144 2 0.634327 0.989127 0.141063
145 3 0.127642 0.44115 0.348924
146 3 0.875659 0.605071 0.657379
147 3 0.138529 0.566899 0.868864
148 3 0.375561 0.390156 0.223075
149 3 0.89426 0.95731 0.194999
150 3 0.107955 0.0664777 0.861745
151 3 0.360193 0.0421527 0.694305
152 3 0.133875 0.932485 0.354384
153 3 0.630646 0.380964 0.323618
154 3 0.382234 0.549158 0.654094
155 3 0.622802 0.589994 0.798842
156 3 0.877263 0.438925 0.185642
157 3 0.365898 0.900015 0.185825
158 3 0.621983 0.058335 0.820183
159 3 0.861346 0.091017 0.671113
160 3 0.616655 0.905021 0.301682
161 3 0.0517386 0.320934 0.418967
162 3 0.948459 0.740077 0.584023
163 3 0.21209 0.711823 0.881972
164 3 0.317431 0.282745 0.0818052
165 3 0.938596 0.814674 0.0617557
166 3 0.0392294 0.20864 0.92868
167 3 0.308519 0.210497 0.600895
168 3 0.192513 0.787518 0.46217
169 3 0.570882 0.254125 0.436708
170 3 0.448571 0.710898 0.621033
171 3 0.685711 0.742911 0.882103
172 3 0.824112 0.291859 0.0699253
173 3 0.426994 0.758231 0.09145
174 3 0.568974 0.214848 0.92588
175 3 0.789136 0.228926 0.605889
176 3 0.691005 0.783306 0.38329
177 3 0.057687 0.377997 0.20959
178 3 0.948971 0.646568 0.78458
179 3 0.184945 0.630275 0.689516
180 3 0.286467 0.358376 0.27053
181 3 0.976228 0.849112 0.253906
182 3 0.0512906 0.168267 0.714032
183 3 0.286799 0.135544 0.800158
184 3 0.201011 0.817884 0.246352
185 3 0.547078 0.322178 0.232904
186 3 0.4398 0.60939 0.817588
187 3 0.699329 0.648386 0.688145
188 3 0.80361 0.334069 0.280784
189 3 0.446363 0.823147 0.286021
190 3 0.54437 0.149082 0.727348
191 3 0.791563 0.122529 0.805978
192 3 0.694083 0.884791 0.184689
193 3 0.12407 0.573958 0.371779
194 3 0.865284 0.475466 0.626395
195 3 0.143132 0.43678 0.902888
196 3 0.383466 0.519937 0.188535
197 3 0.892462 0.0885165 0.165209
198 3 0.110643 0.932106 0.86191
199 3 0.366248 0.913087 0.656409
200 3 0.139112 0.0631253 0.38134
201 3 0.62756 0.514598 0.351364
202 3 0.395721 0.426176 0.610352
203 3 0.626922 0.46792 0.854451
204 3 0.865394 0.571941 0.178443
205 3 0.372094 0.0282376 0.142394
206 3 0.61514 0.928068 0.847325
207 3 0.864372 0.966141 0.619549
208 3 0.621563 0.0255393 0.360656
209 3 0.0122376 0.388683 0.48604
210 3 0.987804 0.700603 0.502345
211 3 0.26107 0.663135 0.929389
212 3 0.306584 0.344202 0.967457
213 3 0.960965 0.860833 0.950975
214 3 0.992807 0.187385 0.997169
215 3 0.277393 0.188293 0.494894
216 3 0.232353 0.845356 0.535161
217 3 0.547533 0.310537 0.538774
218 3 0.490588 0.680096 0.541738