LAMMPS data file via write_data, version 15 Apr 2020, timestep = 80000

336 atoms
4 atom types

1.6899526965302236e-01 2.6195005050746964e+01 xlo xhi
1.7169996551460098e-01 1.1402300393085167e+01 ylo yhi
-9.1797671213308529e-01 1.1626976345933514e+01 zlo zhi
2.0551536281338087e-01 4.1853878312211847e+00 3.1820229201329453e-01 xy xz yz

Masses

1 12.0107
2 1.00794
3 14.0067
4 15.9994

Atoms # full

1 1 1 -3.3086170562028522e-01 3.4040485291907694e+00 2.4041892902558759e+00 2.1055652466404737e+00 0 0 0
2 1 1 -3.2275073122883513e-01 2.5773220015488750e+01 8.4881451923232518e+00 6.1913196504703905e+00 0 0 0
3 1 1 -3.1503193861069728e-01 7.2162488985478186e+00 8.4478830011196315e+00 9.7381502587717321e+00 0 0 0
4 1 1 -3.3179506945358228e-01 1.0353286563573786e+01 4.0618022982085016e+00 4.2239800077992884e-01 0 0 0
5 1 1 -3.2428445145528134e-01 2.3480822438755812e+01 8.4836336446031808e+00 -3.3325291110108857e-01 0 0 0
6 1 1 -3.3218865406956022e-01 5.5957845271048701e+00 3.1686710012205239e+00 8.4104083693360145e+00 0 0 0
7 1 1 -3.3023145606439447e-01 1.1727633859553453e+01 2.1114273221195630e+00 6.6909194172577884e+00 0 0 0
8 1 1 -3.3073943458698740e-01 5.3206556981155479e+00 8.6058692289376566e+00 3.7033282715188491e+00 0 0 0
9 1 1 -3.3389596084306694e-01 1.8269953345929888e+01 3.2486389305604524e+00 4.7866432583243315e+00 0 0 0
10 1 1 -3.3438403720953264e-01 1.3883074287371326e+01 8.5096725515643961e+00 8.5601923353870966e+00 0 0 0
11 1 1 -3.2292562269052588e-01 1.8162354808144212e+01 9.3648410868718592e+00 -3.5934466655191222e-01 0 0 1
12 1 1 -3.3041802890359601e-01 2.5466038255678512e+01 2.8301749509494938e+00 1.1091184881754550e+01 0 0 -1
13 1 1 -3.3286405949766401e-01 1.1677706909301545e+01 9.2319097612527514e+00 2.2482436372506767e+00 0 0 0
14 1 1 -3.2344498322130283e-01 2.0237489032220278e+01 3.6459093182725715e+00 1.0837337849242324e+01 0 0 0
15 1 1 -3.2529953164679265e-01 2.3856767348799472e+01 3.5195211258462820e+00 4.9648032466988976e+00 0 0 0
16 1 1 -3.2973638007889172e-01 2.0387017538563828e+01 8.5568567615825692e+00 5.7326898070371701e+00 0 0 0
17 1 1 -3.3751874440268959e-01 1.7232470259708412e+00 2.3182943231782098e+00 1.5509701163431222e-01 0 0 0
18 1 1 -3.2658664816184313e-01 2.8022329913926779e+01 9.2814736618632132e+00 7.1032236937547166e+00 0 0 0
19 1 1 -3.3185101015876972e-01 9.2395190280456596e+00 9.4876186603496642e+00 8.6203776470455935e+00 0 0 0
20 1 1 -3.2833275374582577e-01 8.5312791742312246e+00 2.4540031647344853e+00 1.0576102127458835e+00 0 0 0
21 1 1 -3.2489589673960506e-01 2.5786503085241709e+01 7.4899084109326290e+00 1.5174056685801807e-01 0 0 0
22 1 1 -3.2598693012793767e-01 3.8600989624925708e+00 3.0558461413707421e+00 6.5036814161116094e+00 0 0 0
23 1 1 -3.2456956794398273e-01 1.0957614074276281e+01 4.1925805091462296e+00 7.9191793836870383e+00 0 0 0
24 1 1 -3.2463195217503005e-01 7.2248798772821825e+00 7.5683858325500859e+00 2.4763707094953018e+00 0 0 0
25 1 1 -3.3122561040171028e-01 1.5924213109107646e+01 2.3254453341407402e+00 4.2709931549611015e+00 0 0 0
26 1 1 -3.2395602200674378e-01 1.5827139659276718e+01 9.6080407166422503e+00 9.8206805122294938e+00 0 0 0
27 1 1 -3.2789342203639243e-01 2.2782902136325372e+01 9.6918956249170449e+00 9.6504128831377329e+00 0 0 0
28 1 1 -3.2923057910665782e-01 2.1523426585870375e+01 2.7807826928641628e+00 1.1636955992774332e+00 0 0 0
29 1 1 -3.3377725732020874e-01 1.3987870210402864e+01 8.6621288624345105e+00 3.2814833729304622e+00 0 0 0
30 1 1 -3.3129746427407325e-01 1.7811004105458149e+01 4.0559630785751786e+00 1.0171847040568078e+01 0 0 0
31 1 1 -3.2689061589573859e-01 2.3801555986319251e+01 3.5659879331272029e+00 7.4732575268068979e+00 0 0 0
32 1 1 -3.2822686894000064e-01 1.9841941124848447e+01 8.5421694026683319e+00 3.1773748723675590e+00 0 0 0
33 1 1 -3.2466391471268435e-01 3.7709805119936557e+00 3.9131900459079327e+00 2.0798469489551996e-02 0 0 0
34 1 1 -3.3623769993502750e-01 2.7135846407905827e+01 6.9859950653044045e+00 7.9176994483835221e+00 0 0 0
35 1 1 -3.3500101019788486e-01 7.3357440703054131e+00 8.4798600334627459e+00 7.1750494898724648e+00 0 0 0
36 1 1 -3.2545846446358717e-01 1.0218495958860938e+01 3.3008289579411736e+00 2.8752255940806122e+00 0 0 0
37 1 1 -3.2256784550106427e-01 2.4868288144426391e+01 9.5816536019205891e+00 1.5190955925033678e+00 0 0 0
38 1 1 -3.2347283324917242e-01 5.9242748345815937e+00 1.5195221196724418e+00 6.4217429479428416e+00 0 0 0
39 1 1 -3.2797284736293697e-01 1.2784703151561176e+01 2.6966127820695109e+00 8.8698904831857384e+00 0 0 0
40 1 1 -3.3055007122225688e-01 5.3553953581284981e+00 8.6150428891651956e+00 1.0261883018002262e+00 0 0 0
41 1 1 -3.2890732983953291e-01 1.6720930386286494e+01 4.4226941977628753e+00 3.1105599619232907e+00 0 0 0
42 1 1 -3.3560028619572729e-01 1.4329524058645804e+01 7.9994678231539416e+00 1.1053857783063176e+01 0 0 0
43 1 1 -3.2253805219200843e-01 2.0587081937324303e+01 8.6305167133019154e+00 1.0635363926383071e+01 0 0 0
44 1 1 -3.2388724831836879e-01 2.3467846705144776e+01 3.4050788214631340e+00 -4.0380596575505123e-01 0 0 0
45 1 1 -3.4211148142843328e-01 1.2165702741030154e+01 9.6965867362840292e+00 4.7655376927623037e+00 0 0 0
46 1 1 -3.2237770509611935e-01 1.9184378954955442e+01 2.2579962660768551e+00 8.9129265799267330e+00 0 0 0
47 1 1 -3.2262121684491779e-01 2.5615055059010061e+01 2.1968735868870159e+00 6.3079986259976319e+00 0 0 0
48 1 1 -3.2883535809612252e-01 1.8349024162950137e+01 9.8050889521795597e+00 4.8216057260170411e+00 0 0 0
49 1 2 2.7587489424536360e-01 4.1259687003903487e+00 1.5318581560161204e+00 2.0087809163148052e+00 0 0 0
50 1 2 2.3776562696264372e-01 2.4979830521213128e+01 9.0028862966464551e+00 6.8108672300203947e+00 0 0 0
51 1 2 2.8134357829528089e-01 6.6625486631172937e+00 9.4249587213440194e+00 9.7760780789848809e+00 0 0 0
52 1 2 2.4073855158464877e-01 1.1053319844972545e+01 3.2571690088135150e+00 1.9672585212410176e-01 0 0 0
53 1 2 2.7408567402840162e-01 2.2815667723455661e+01 7.7290908249605259e+00 1.1406271789871969e-01 0 0 0
54 1 2 2.7993512890662120e-01 6.1180355100217696e+00 4.1251965585945971e+00 8.1424012707581639e+00 0 0 0
55 1 2 2.6975090093415743e-01 1.2288973373299376e+01 2.5266385665693369e+00 5.8647722260578732e+00 0 0 0
56 1 2 2.4857103078522738e-01 4.8082733953101631e+00 7.6615387449416366e+00 4.0164309611136000e+00 0 0 0
57 1 2 2.5186754458099825e-01 1.8789090298393759e+01 2.5265999609581939e+00 4.2423133389463388e+00 0 0 0
58 1 2 2.4672585053247426e-01 1.2981206832829443e+01 9.0801679088012364e+00 8.4132562709598950e+00 0 0 0
59 1 2 2.7618742841211091e-01 1.7895501439176520e+01 1.0400402465734270e+01 -1.9887412837686991e-01 0 0 1
60 1 2 2.5812214951082463e-01 2.5653540760421716e+01 1.8131241566814236e+00 1.0755231363483908e+01 0 0 -1
61 1 2 2.6775778159482588e-01 1.1172250438404195e+01 8.2842605996961360e+00 2.1119776952535547e+00 0 0 0
62 1 2 2.5343813424150485e-01 2.0879515985490055e+01 4.3417406122581221e+00 1.0294675820360904e+01 0 0 0
63 1 2 2.5212120162025620e-01 2.4264108647255576e+01 4.4552919174908681e+00 4.5776198136424631e+00 0 0 0
64 1 2 2.4659268689578859e-01 1.9937339948532209e+01 7.6508796500424783e+00 6.1891791071149633e+00 0 0 0
65 1 2 2.4094231413681855e-01 3.3307142238564369e+00 2.5538168162312140e+00 3.2160840393542403e+00 0 0 0
66 1 2 2.8787405360642748e-01 2.5410002254388662e+01 8.1249888435940179e+00 5.2322928157349278e+00 0 0 0
67 1 2 2.7263797993383054e-01 6.9357196214141110e+00 7.8949322792402361e+00 1.0672995033010412e+01 0 0 -1
68 1 2 2.5613878520107242e-01 1.0697517408276111e+01 4.9286301002501158e+00 -1.4723910226019765e-01 0 0 1
69 1 2 2.6712144139059085e-01 2.7132954369645390e+01 9.2902695000568407e+00 1.1324566401411730e+01 0 0 0
70 1 2 2.5413130740010476e-01 5.6053444782224418e+00 3.1900038969214140e+00 9.4465336545725158e+00 0 0 -1
71 1 2 2.5756107615884821e-01 1.1177884192436991e+01 1.2182298187239464e+00 6.4419886531009825e+00 0 0 0
72 1 2 2.7785921286047044e-01 5.0262056456042972e+00 9.3261609981678149e+00 4.4335438790824337e+00 0 0 0
73 1 2 2.7200218988441682e-01 1.8893604415693162e+01 3.5732052478108001e+00 5.5969669888722580e+00 0 0 0
74 1 2 2.4882244106324539e-01 1.3884613524704697e+01 7.9301266078616459e+00 7.6292789786422839e+00 0 0 0
75 1 2 2.4583344215206651e-01 1.8828504807684734e+01 9.1216369462283353e+00 5.0648635366605865e-01 0 0 0
76 1 2 2.5114380698089095e-01 2.4738267248213493e+01 3.3090001744515241e+00 1.0427076339434965e+01 0 0 0
77 1 2 2.5987448899109805e-01 1.1311085607062026e+01 9.7198633191433963e+00 1.3693271964972231e+00 0 0 1
78 1 2 2.7562748066535508e-01 1.6635359156895564e+01 3.2538812806181991e+00 -7.2501838873838398e-01 0 0 0
79 1 2 2.3859280014534867e-01 2.3068496399108600e+01 3.4506292008350434e+00 4.2306945030416552e+00 0 0 0
80 1 2 2.4484869297228531e-01 2.1284636280956825e+01 8.7216694160246817e+00 6.3053766853956299e+00 0 0 0
81 1 2 2.6224800485987459e-01 6.7278630547235663e-01 2.3312920151919840e+00 -3.3681106272989036e-02 1 0 0
82 1 2 2.9676581326671037e-01 2.9635303690233399e+00 9.7014600119668337e+00 6.6495503393122144e+00 0 0 0
83 1 2 2.5748832208283728e-01 1.0283985159825114e+01 9.3095180546795184e+00 8.6320154525300232e+00 0 0 0
84 1 2 2.6232170892909695e-01 7.4632556878889202e+00 2.2608435815502137e+00 9.4244680765291400e-01 0 0 0
85 1 2 2.8258867965676432e-01 7.5964112388471161e-01 7.2073728960756966e+00 -3.7478647616365401e-01 0 0 0
86 1 2 2.4770641111092792e-01 2.7963601727761591e+00 2.8655632332424048e+00 6.2381621049501179e+00 1 0 0
87 1 2 2.5917225081847728e-01 9.9838904785663978e+00 4.6255013789657564e+00 8.1999990425498659e+00 0 0 0
88 1 2 2.6164817281008246e-01 8.3295195624478211e+00 7.4261306101181637e+00 2.5153581466660095e+00 0 0 0
89 1 2 2.6856010582499329e-01 1.4975916253155454e+01 1.9770509644637004e+00 4.6566379807646827e+00 0 0 0
90 1 2 2.8149336837313160e-01 1.6922730189682394e+01 9.7313855912809046e+00 9.6190718505251809e+00 0 0 0
91 1 2 2.3813861321851573e-01 2.3521873422060619e+01 9.4293809782971323e+00 8.8805406259534507e+00 0 0 0
92 1 2 2.4852479962016691e-01 2.0930620134919479e+01 3.5146207556435369e+00 1.7774050111470894e+00 0 0 0
93 1 2 2.5695412615553098e-01 1.4972635668133139e+01 8.9441875207521093e+00 2.9643928701995201e+00 0 0 0
94 1 2 2.5036393489869746e-01 1.6929486515634366e+01 4.1545496454877746e+00 1.0762857599601610e+01 0 0 0
95 1 2 2.4396774244819019e-01 2.3036528882821845e+01 2.9236672490995081e+00 7.9859306204010894e+00 0 0 0
96 1 2 2.5377164372060024e-01 2.0410105343430089e+01 8.9503723824517962e+00 2.2920304069615245e+00 0 0 0
97 1 2 2.6186427368490756e-01 2.1770241505362731e+00 1.5253251758273192e+00 -4.1110234090034337e-01 0 0 0
98 1 2 2.6152848393169303e-01 2.7625394575767629e+01 9.9462964449913400e+00 7.8501377862293920e+00 0 0 0
99 1 2 2.4393067334786739e-01 8.9742491185037743e+00 1.0559248728721670e+01 8.6568166058312279e+00 0 0 0
100 1 2 2.4983326115277685e-01 9.0308940256492960e+00 1.5136061800638976e+00 7.6649035162338963e-01 0 0 0
101 1 2 2.6353531346969900e-01 2.5450131504901147e+01 6.6338683385161508e+00 7.1202740212080751e-01 0 0 0
102 1 2 2.4919005494651059e-01 4.2585758621659968e+00 3.8726096762945650e+00 5.8605714771302315e+00 0 0 0
103 1 2 2.5562860569153900e-01 1.1432291659188349e+01 5.0311068122280229e+00 7.4361704813207234e+00 0 0 0
104 1 2 2.3879860745002596e-01 6.7746176950143315e+00 6.5443057763226999e+00 2.4843492964489795e+00 0 0 0
105 1 2 2.6041818962278174e-01 1.6160882450910478e+01 1.5352192380615364e+00 3.5192469021371817e+00 0 0 0
106 1 2 2.6022836591612336e-01 1.5478758881180459e+01 1.0558908418349848e+01 1.0164839427915034e+01 0 0 0
107 1 2 2.4960489763505600e-01 2.2438160215971106e+01 1.0749267917280637e+01 9.4343388996252671e+00 0 0 0
108 1 2 2.3693828074735235e-01 2.1612667934750384e+01 1.8476271355780922e+00 1.7419361948491217e+00 0 0 0
109 1 2 2.5233270873910019e-01 1.4089562800039678e+01 7.6475082980235181e+00 3.6169237474477525e+00 0 0 0
110 1 2 2.3949006358381389e-01 1.7922559094362136e+01 4.9965771075231586e+00 9.6531126474633027e+00 0 0 0
111 1 2 2.4708279271761463e-01 2.3847555036839243e+01 4.3266113791986509e+00 8.2126018407026358e+00 0 0 0
112 1 2 2.4973169653648347e-01 1.9388592604768064e+01 7.5846183700448995e+00 2.8770819563390173e+00 0 0 0
113 1 2 2.6623872736028514e-01 4.5117389564635619e+00 3.3199892734568608e+00 -6.0700182623442367e-01 0 0 0
114 1 2 2.7462706356060540e-01 2.6734963184676683e+01 7.0665161639495579e+00 8.9276088087402776e+00 0 0 0
115 1 2 2.5254374681906344e-01 6.7615930078700899e+00 9.3326562406588955e+00 6.9173888375153423e+00 0 0 0
116 1 2 2.5951115930553115e-01 1.1065909525710669e+01 2.5514257684994130e+00 3.0274686102363400e+00 0 0 0
117 1 2 2.8760789526553571e-01 2.4656270806820988e+01 9.3281771328401923e+00 2.5886675238959684e+00 0 0 0
118 1 2 2.5766552994452896e-01 6.6377337806719341e+00 2.0658034976258772e+00 5.7770531845146174e+00 0 0 0
119 1 2 2.7012203425390596e-01 1.3765476860903025e+01 3.1629447257842598e+00 9.0512374774477458e+00 0 0 0
120 1 2 2.7015006017748355e-01 4.7821603839730571e+00 7.6761559871356315e+00 7.8959434814894336e-01 0 0 0
121 1 2 2.7237645483491346e-01 1.6967728204921922e+01 4.0961336107082591e+00 2.1149606698303649e+00 0 0 0
122 1 2 2.4657756798621044e-01 1.3655181764137364e+01 8.7625499619946687e+00 1.1387523748569027e+01 0 0 0
123 1 2 2.7447097761077860e-01 1.9778619255403171e+01 9.3735328904257678e+00 1.0423348354125480e+01 0 0 0
124 1 2 2.7879470641287873e-01 2.4029897614630787e+01 2.4483541426476823e+00 -3.9959090239568429e-01 0 0 0
125 1 2 2.3978503458028427e-01 1.1893724883624765e+01 8.7932646450034007e+00 5.2600180347280112e+00 0 0 0
126 1 2 2.6422076969710406e-01 1.9295898816618184e+01 2.7423642581373122e+00 7.9588691191100560e+00 0 0 0
127 1 2 2.7051058157167379e-01 2.6396456560794846e+01 2.9032079977615082e+00 6.0209312443727274e+00 0 0 0
128 1 2 2.5805706931904532e-01 1.7718141102857718e+01 8.9317263620523484e+00 5.1112541353808263e+00 0 0 0
129 1 2 2.8945739992149144e-01 3.9468519106362203e+00 5.0280230628309202e+00 -1.8983771014566142e-01 0 0 0
130 1 2 2.6926362472167698e-01 2.7471273887639484e+01 5.9711473496721137e+00 7.9414380639390201e+00 0 0 0
131 1 2 2.5388097966717926e-01 7.2926522634414290e+00 7.7490253836204976e+00 6.3709556731161490e+00 0 0 0
132 1 2 2.5052459210796990e-01 1.0143092838516367e+01 3.7786934543851021e+00 3.8465431587294434e+00 0 0 0
133 1 2 2.8116223869932266e-01 2.5315919439780263e+01 1.0588060596668811e+01 1.5656840738540283e+00 0 0 0
134 1 2 2.6559065539539722e-01 6.1217134139673188e+00 3.9683290913789859e-01 6.3806333795942320e+00 0 0 0
135 1 2 2.5056361898647123e-01 1.2679246329422359e+01 1.9650093715072543e+00 9.6252231267145980e+00 0 0 0
136 1 2 2.5691579406455467e-01 5.1689376333161317e+00 9.2909184381912233e+00 2.3032570240737393e-01 0 0 0
137 1 2 2.6570365795466883e-01 1.6440399483780890e+01 5.4531894605483391e+00 2.9477061916108069e+00 0 0 0
138 1 2 2.6192609823400148e-01 1.0090641970944560e+01 6.8556450931173263e+00 -7.7973036576225496e-01 0 0 1
139 1 2 2.6595001881340113e-01 2.0016641962256447e+01 7.7073369738649342e+00 1.0672188611175411e+01 0 0 0
140 1 2 2.7717232822798199e-01 2.4232239938198699e+01 4.1750446618426471e+00 -5.8623606100899772e-01 0 0 0
141 1 2 2.4295382159352710e-01 1.1907883210245053e+01 1.0517007510692725e+01 5.4007931130234326e+00 0 0 0
142 1 2 2.8301197605444617e-01 1.8964157085811603e+01 1.1639246568567794e+00 8.6452526216476961e+00 0 0 0
143 1 2 2.7034178786647567e-01 2.6049462895255918e+01 1.1837237950037234e+00 6.3903549090478844e+00 0 0 0
144 1 2 2.5051294721492767e-01 1.7688460925623538e+01 1.0681769894703148e+01 4.9709685217408888e+00 0 0 0
145 1 3 1.7761437702862987e-01 4.1335028580853796e+00 3.5232914578702488e+00 1.4386624443901108e+00 0 0 0
146 1 3 1.6109758297658433e-01 2.5935287147513300e+01 7.1852540867672507e+00 6.9854375860292341e+00 0 0 0
147 1 3 1.8976855692979741e-01 6.7236065629652000e+00 7.8905459827744027e+00 8.4255463896328031e+00 0 0 0
148 1 3 1.6162332795519888e-01 1.0853953475611664e+01 4.1804157823520747e+00 1.8728875961136966e+00 0 0 0
149 1 3 1.9254984499557420e-01 2.3642541883163499e+01 9.5899475985836631e+00 6.8252392744612012e-01 0 0 0
150 1 3 1.9596531832454694e-01 6.3747568755723432e+00 2.0201479302865528e+00 7.8248141337514747e+00 0 0 0
151 1 3 1.8144695455283549e-01 1.2715793912834744e+01 1.6979703632383476e+00 7.7370851162586485e+00 0 0 0
152 1 3 1.8638935207095458e-01 4.7411954320619643e+00 9.0604203700343184e+00 2.3553153383449095e+00 0 0 0
153 1 3 1.7524530166028232e-01 1.8048826487376470e+01 4.3840576740172112e+00 3.8701599111298677e+00 0 0 0
154 1 3 1.7085409219190073e-01 1.3611798000174531e+01 7.6464332113278317e+00 9.7416523577466165e+00 0 0 0
155 1 3 1.8659618154252061e-01 1.6934065061407210e+01 8.5324372025744033e+00 -5.1063426306104098e-01 0 0 1
156 1 3 1.8383626805041633e-01 2.6751534921379864e+01 3.5631091766418326e+00 1.0919727432709795e+01 0 0 -1
157 1 3 1.9049175443440994e-01 1.1296354266169519e+01 9.9019169841590404e+00 3.5248915729031767e+00 0 0 0
158 1 3 1.8383869685474663e-01 2.0250270036898431e+01 2.4212195359331297e+00 9.9340090252022222e+00 0 0 0
159 1 3 1.9316860362963029e-01 2.4882805375749953e+01 2.3902868023929678e+00 5.0189269865015804e+00 0 0 0
160 1 3 1.7709061968915435e-01 1.9324698887618894e+01 9.6195744935472973e+00 5.9281744905567839e+00 0 0 0
161 1 3 1.8856953229266560e-01 2.0986811100051685e+00 1.9189527587160988e+00 1.5799212394476316e+00 0 0 0
162 1 3 1.8261119270194348e-01 2.6973443020049857e+01 9.4280332799238380e+00 6.0625600241480653e+00 0 0 0
163 1 3 1.5386824655520892e-01 8.6465804161485273e+00 8.9068945327817808e+00 9.8891291474474343e+00 0 0 0
164 1 3 1.8519266288521474e-01 8.9995590021563263e+00 3.5628955209637940e+00 1.4107456084250525e-01 0 0 0
165 1 3 1.8154934286284963e-01 2.4674793959348680e+01 7.7510722534537777e+00 -8.4109640154354004e-01 0 0 0
166 1 3 1.7952401598486933e-01 4.2295808513834476e+00 3.5411823533391695e+00 7.8814917694090054e+00 0 0 0
167 1 3 1.6423742899013313e-01 1.0645582383363301e+01 3.1238964492489814e+00 6.8598248216964279e+00 0 0 0
168 1 3 1.5849125585555685e-01 6.7501975873784774e+00 8.2495821437017121e+00 3.7460977701538427e+00 0 0 0
169 1 3 1.8052399239833153e-01 1.7037505111051555e+01 2.4963194158249666e+00 5.2529641348766214e+00 0 0 0
170 1 3 1.7721535112153541e-01 1.5131854757153649e+01 9.3570442694728406e+00 8.5134460745854028e+00 0 0 0
171 1 3 1.6299835400081295e-01 2.3368716175846330e+01 9.7594130383912159e+00 1.0998064439875026e+01 0 0 0
172 1 3 1.7319513261375966e-01 2.0660302871419631e+01 2.4418056523219089e+00 -3.6925638545295958e-02 0 0 0
173 1 3 1.5730133131445639e-01 1.3100228505778901e+01 8.7902338526944810e+00 2.0738137349809245e+00 0 0 0
174 1 3 1.6914718118378952e-01 1.8966227972151941e+01 4.2919362992451147e+00 1.1167274966956473e+01 0 0 0
175 1 3 1.6829145072129365e-01 2.3172831621504841e+01 4.0429506788740603e+00 6.2037781368954130e+00 0 0 0
176 1 3 1.6378475250142691e-01 2.0795680038999993e+01 8.1564335561010530e+00 4.3094672318622793e+00 0 0 0
177 1 3 1.6785154633480873e-01 2.3687105102206840e+00 3.5422212310337775e+00 -3.6483256585181090e-01 0 0 0
178 1 3 1.7068015425578886e-01 2.8262061672712026e+01 7.9098457354523886e+00 7.7224868604120234e+00 0 0 0
179 1 3 1.6598112461176848e-01 8.7524333818037370e+00 8.9691876231964507e+00 7.2700736175920655e+00 0 0 0
180 1 3 1.8458675051843865e-01 8.9224693462431297e+00 2.5860727284594498e+00 2.5102435595215176e+00 0 0 0
181 1 3 1.8569898709750784e-01 2.5992053883477137e+01 8.6230186289694828e+00 1.1226996823973083e+00 0 0 0
182 1 3 1.6499199309769572e-01 4.5354276780919491e+00 1.7954986355993738e+00 5.9684229578979400e+00 0 0 0
183 1 3 1.9228900359475340e-01 1.1721585451346652e+01 3.7553273820061266e+00 9.1226608421019435e+00 0 0 0
184 1 3 1.8927226056961308e-01 6.7717254687924848e+00 8.1158378619586209e+00 1.1681051172279506e+00 0 0 0
185 1 3 1.8543947210461395e-01 1.5577842604625530e+01 3.5754373252312392e+00 3.4991496506515904e+00 0 0 0
186 1 3 1.6770002869707221e-01 1.5619823363250857e+01 8.6854484006617412e+00 1.0978741387505284e+01 0 0 0
187 1 3 1.6394177711649641e-01 2.1559590317349002e+01 8.8166072492195902e+00 9.4955982478422563e+00 0 0 0
188 1 3 1.6767447871856439e-01 2.2844940012883754e+01 3.4822258406271014e+00 9.5220189401729916e-01 0 0 0
189 1 3 1.6338691950709777e-01 1.3616609292908898e+01 9.3584401936640802e+00 4.5694754817755872e+00 0 0 0
190 1 3 1.8153590965757729e-01 1.7831443166090192e+01 2.8607439430334809e+00 9.2790761331787905e+00 0 0 0
191 1 3 1.8151782359641772e-01 2.5010692116360627e+01 2.6358269677424331e+00 7.5783856795423405e+00 0 0 0
192 1 3 1.6430575113969473e-01 1.8743827271103203e+01 9.5547252476491629e+00 3.4163006177416353e+00 0 0 0
193 1 3 3.2970999797294998e-01 3.9906213224750235e+00 4.8088451655946818e+00 2.2799440421231378e+00 0 0 0
194 1 3 3.0833805770563572e-01 2.5762326539476508e+01 5.9850609095480891e+00 6.0722095404131267e+00 0 0 0
195 1 3 3.1652671894609880e-01 6.7466228326147473e+00 6.3565908422973134e+00 8.3785042255294542e+00 0 0 0
196 1 3 3.1083140966238448e-01 1.0856951652721845e+01 5.6722845066546697e+00 2.3305795058069658e+00 0 0 0
197 1 3 3.2612055395463946e-01 2.3615452057600425e+01 1.0982581776183160e+01 -4.7534801163868101e-02 0 -1 0
198 1 3 3.2156946466822567e-01 6.4062199893748115e+00 8.8223088804728311e-01 8.8456392025288224e+00 0 1 0
199 1 3 2.9565657056139233e-01 1.2559227859301293e+01 1.1542360625335512e+01 8.3732466844356885e+00 0 0 0
200 1 3 3.1884903826853905e-01 4.7625158830683221e+00 1.0581265398411627e+01 2.3427653379527711e+00 0 -1 0
201 1 3 3.2639157113098016e-01 1.8164227786175775e+01 5.7267413512068721e+00 4.6486307655872325e+00 0 0 0
202 1 3 3.1977747290652286e-01 1.3709390843299493e+01 6.1479832687899671e+00 9.4400984956346541e+00 0 0 0
203 1 3 3.2318411681530246e-01 1.7098372998462413e+01 7.1664416718969202e+00 1.8286071218105548e-01 0 0 1
204 1 3 3.2075797394285321e-01 2.6499155678070011e+01 4.9062511465538501e+00 1.0206887434367143e+01 0 0 -1
205 1 3 3.1996587041823382e-01 1.1064232689049270e+01 1.1392975763317008e+01 3.2556844994523635e+00 0 -1 0
206 1 3 3.2672079727540915e-01 2.0379072251416126e+01 1.0747810654949199e+00 1.0703004810864034e+01 0 1 0
207 1 3 3.3586640850121374e-01 2.4279303489907523e+01 1.0547991236149876e+00 4.5036317292770347e+00 0 1 0
208 1 3 3.2048107866389908e-01 1.9820510078682112e+01 1.0992347752240523e+01 6.4639936881003841e+00 0 -1 0
209 1 3 3.2834325583848051e-01 2.6953926041487509e+01 2.2287777183083777e+00 2.5365217917885095e+00 -1 0 0
210 1 3 3.4141752266600978e-01 2.7459200455411938e+01 9.3287133049153326e+00 4.5999917589433350e+00 0 0 0
211 1 3 3.1244312109108902e-01 9.4971898856736381e+00 7.8138231227500992e+00 1.0537306536254263e+01 0 0 -1
212 1 3 3.3774596488902070e-01 7.9790806288873570e+00 4.7548458571755052e+00 6.1082825207000813e-02 0 0 1
213 1 3 3.1464202726971235e-01 2.9359212599513402e+01 8.8280616348760361e+00 1.0457737320382872e+01 0 0 0
214 1 3 3.2589098297344427e-01 2.9142535344761317e+01 3.0729019819877643e+00 8.8539697757657372e+00 -1 0 -1
215 1 3 3.2270739165251972e-01 9.2868992134473896e+00 2.4357926600868924e+00 7.0943397532967536e+00 0 0 0
216 1 3 3.2229911416094487e-01 7.6282534518897824e+00 9.4881061794403330e+00 4.0772333009885324e+00 0 0 0
217 1 3 3.3092393304078577e-01 1.6456548380883682e+01 3.1265959915358987e+00 6.5453747952512682e+00 0 0 0
218 1 3 3.1854964052481527e-01 1.6139357044260727e+01 8.6761127805780802e+00 7.5422648136010944e+00 0 0 0
219 1 3 3.1646709386682803e-01 2.4437578394712400e+01 8.6876042368872852e+00 1.1245052380987058e+01 0 0 -1
220 1 3 3.2747397101839787e-01 1.9367772604097524e+01 3.2566914746840090e+00 1.7007463052381877e-02 0 0 1
221 1 3 3.1705802633375640e-01 1.3802280037959987e+01 9.6920773902685120e+00 1.0369808702154037e+00 0 0 1
222 1 3 3.3308951261540892e-01 1.4337997965661502e+01 3.6409350051134819e+00 6.6231726298580873e-02 0 0 0
223 1 3 3.1358453046008927e-01 2.1697070319288198e+01 3.5891322682870141e+00 6.2051075411815839e+00 0 0 0
224 1 3 3.2139327584367977e-01 2.2230004701571165e+01 8.5705062495700588e+00 3.9992753679388837e+00 0 0 0
225 1 3 3.1809816485903675e-01 1.3660228291283465e+00 4.7566044480014309e+00 -3.6492073782211054e-01 1 0 0
226 1 3 3.2462680333486543e-01 3.4235799868431869e+00 7.1708494966121092e+00 7.0123220682826659e+00 0 0 0
227 1 3 3.1250304397707807e-01 9.6877263193421168e+00 7.9254489907664496e+00 6.6434114384033505e+00 0 0 0
228 1 3 3.1658320237544496e-01 7.7415809251117214e+00 3.1633088299562977e+00 3.3202805124504824e+00 0 0 0
229 1 3 3.3619167818791362e-01 1.1499331656371954e+00 9.5136986122253191e+00 6.9192533023089409e-01 0 0 0
230 1 3 3.2147552279668890e-01 3.6047731421974345e+00 6.2616986467536040e-01 6.3038392797218838e+00 1 0 0
231 1 3 3.2792261934138922e-01 1.0777968175835429e+01 3.1774989061140744e+00 1.0188683167414975e+01 0 0 0
232 1 3 3.2881367957945895e-01 7.7889432783000236e+00 9.1915813978171421e+00 6.3341801625492034e-01 0 0 0
233 1 3 3.3963116139057492e-01 1.4517504868168190e+01 4.4083275924134151e+00 4.2898813400598499e+00 0 0 0
234 1 3 3.1844431182033395e-01 1.6867620729884592e+01 7.6969606452263815e+00 1.1133623236442446e+01 0 0 0
235 1 3 3.1021773088742605e-01 2.1903011903327755e+01 7.4580129840515452e+00 8.8619886754646267e+00 0 0 0
236 1 3 3.1365825561720789e-01 2.2706738825472950e+01 4.9841722504842076e+00 1.3090553688931390e+00 0 0 0
237 1 3 3.1026802912590495e-01 1.4439877884366082e+01 1.0665351496611216e+01 4.7544367666518808e+00 0 0 0
238 1 3 3.2987661309102267e-01 1.6800730794180190e+01 1.7847365489752758e+00 9.6623212385113320e+00 0 0 0
239 1 3 2.9692681261621062e-01 2.4607952246320338e+01 1.3318568150259342e+00 8.3176172596663385e+00 0 0 0
240 1 3 3.0850139000541504e-01 1.9096200724111849e+01 1.0866469899673575e+01 2.6636842986902161e+00 0 0 0
241 1 4 -3.5076945440526092e-01 4.3029575230310311e+00 5.9347750064363671e+00 1.7633305578710252e+00 0 0 0
242 1 4 -3.5173249203230644e-01 2.6211569280916418e+01 4.8267414852096460e+00 6.4787809292471898e+00 0 0 0
243 1 4 -3.3536034243425766e-01 6.6537081753531613e+00 5.7423791955292041e+00 7.2764966898561534e+00 0 0 0
244 1 4 -3.2111812190156630e-01 1.0808169079449575e+01 5.9738075956902357e+00 3.5615631257707472e+00 0 0 0
245 1 4 -3.5063140495746792e-01 2.4143724687017187e+01 7.1631884089391984e-01 3.4623346671660471e-01 0 0 0
246 1 4 -3.7287484159237122e-01 6.6557608067071339e+00 1.0870412453378332e+01 8.5244543130140151e+00 0 0 0
247 1 4 -3.6533816482486176e-01 1.3235672270493335e+01 1.1193539985452336e+01 9.3751927921354010e+00 0 0 0
248 1 4 -3.4952139538347843e-01 4.4709777464613270e+00 1.1181829004750483e+01 1.2184393414841939e+00 0 -1 0
249 1 4 -3.4290773044047834e-01 1.7532324474423344e+01 6.7423095585158981e+00 4.1890244896843738e+00 0 0 0
250 1 4 -3.6281045035365200e-01 1.3709721679115457e+01 5.3070084537935642e+00 1.0389140333278412e+01 0 0 0
251 1 4 -3.3624347614275746e-01 1.6711142171602301e+01 6.0761164341574725e+00 -3.6784876375602604e-01 0 0 1
252 1 4 -3.5929825009349670e-01 2.7325650575859989e+01 5.9027477278038836e+00 1.0326497783719208e+01 0 0 -1
253 1 4 -3.8063141087662533e-01 1.1029776400157100e+01 1.0954953299681283e+00 4.1079727084382327e+00 0 0 0
254 1 4 -3.6066686549194116e-01 2.0005803434475652e+01 1.1286936762897508e+01 1.0200838329846125e+01 0 0 0
255 1 4 -3.1091302514719177e-01 2.5104622959107846e+01 1.1180181776667631e+01 4.6652975469006615e+00 0 0 0
256 1 4 -3.6231412235812888e-01 1.8852705642521300e+01 7.9621442285074817e-01 6.5068630237170373e+00 0 0 0
257 1 4 -3.3434273910091528e-01 3.8953343705584524e+00 4.7431902184504100e+00 3.5518272461205962e+00 0 0 0
258 1 4 -3.5719707735106843e-01 2.5176975156144263e+01 6.1349849494087874e+00 4.9328667386780145e+00 0 0 0
259 1 4 -3.3719239173695387e-01 6.8354547043430998e+00 5.7283266726204864e+00 9.4890014299630643e+00 0 0 0
260 1 4 -3.7091926228105060e-01 1.0884722211696454e+01 6.5512239119768312e+00 1.3956725389110907e+00 0 0 0
261 1 4 -3.5131273260270202e-01 2.2634497156379080e+01 1.1211399443985020e+01 -8.4399400164591243e-01 0 -1 0
262 1 4 -3.4347542873071979e-01 6.5275928449019798e+00 1.2351085852939192e+00 1.0103037201140637e+01 0 1 0
263 1 4 -3.9355026775060203e-01 1.1737027006977907e+01 1.0790227620558699e+01 7.7600595947369024e+00 0 0 0
264 1 4 -3.4254041082130871e-01 4.9331352297448232e+00 1.1290318911879776e+01 3.3866358716409151e+00 0 -1 0
265 1 4 -3.3300762769965581e-01 1.8892756810829464e+01 5.7757812890639579e+00 5.6859810168214864e+00 0 0 0
266 1 4 -3.1968179202308694e-01 1.3672492190380320e+01 5.7346636930925419e+00 8.2254446932533440e+00 0 0 0
267 1 4 -3.4160225197080563e-01 1.7592926994397629e+01 7.1587366534504460e+00 1.3614568502109741e+00 0 0 1
268 1 4 -3.5283253399413428e-01 2.5498243049235569e+01 5.0489229712892971e+00 9.4371689529873350e+00 0 0 -1
269 1 4 -3.5208854176014237e-01 1.0469365424112830e+01 5.0655738999672439e-01 2.0662041987257771e+00 0 0 0
270 1 4 -3.5233889477066899e-01 2.1309023740451455e+01 1.0153692337513975e+00 1.1591618913375296e+01 0 1 0
271 1 4 -3.1235502863260300e-01 2.3088967650972393e+01 9.7716807332061750e-01 4.0321701562715253e+00 0 1 0
272 1 4 -3.3321277539183691e-01 2.0994017408696802e+01 1.1033929192349508e+01 6.9316093990899263e+00 0 -1 0
273 1 4 -3.3074259190363903e-01 2.5803370124325596e+01 2.3089953053398791e+00 2.0106538659619271e+00 0 0 0
274 1 4 -3.2878114754085985e-01 2.7043736157335339e+00 9.3952448219116818e+00 4.3460408068989516e+00 0 0 0
275 1 4 -3.3516832920274864e-01 1.0771162318505235e+01 7.7764773773895604e+00 1.0289658814209712e+01 0 0 -1
276 1 4 -3.1395332063741427e-01 6.7344765264008926e+00 4.4508048670178475e+00 -1.3243441496730879e-01 0 0 1
277 1 4 -3.4309035847688651e-01 4.5721039572136926e+00 8.7222719714954273e+00 1.0120761875302755e+01 0 0 0
278 1 4 -3.3567283242882967e-01 2.7909602150242339e+01 3.0566095960172746e+00 8.4754667033405866e+00 0 0 -1
279 1 4 -3.2474160417589781e-01 8.3504603721378032e+00 3.2169435076834971e+00 7.4787043223481708e+00 0 0 0