ITEM: TIMESTEP
0
ITEM: NUMBER OF ATOMS
448
ITEM: BOX BOUNDS xy xz yz pp pp pp
-2.4186686450000000e-01 1.3879200000000001e+01 8.1284706647000001e-16
0.0000000000000000e+00 1.3274800000000003e+01 -2.4186686450000000e-01
0.0000000000000000e+00 2.2679910358299999e+01 1.4036330231000001e-15
ITEM: ATOMS id type xs ys zs
1 1 0.344067 0.120013 0.263921
2 2 0.245378 0.126528 0.25575
3 3 0.220942 0.153766 0.2165
4 3 0.20117 0.0993761 0.287023
5 2 0.401878 0.150496 0.218192
6 3 0.474628 0.148712 0.225634
7 3 0.368883 0.174082 0.180504
8 1 0.383504 0.0856134 0.318292
9 2 0.319246 0.0638126 0.369558
10 4 0.350111 0.0848291 0.421981
11 4 0.234615 0.0282245 0.356918
12 2 0.489038 0.0728022 0.329309
13 4 0.514821 0.0286997 0.37783
14 4 0.545969 0.10335 0.288294
15 1 0.405933 0.370013 0.486079
16 2 0.504622 0.376528 0.49425
17 3 0.529058 0.403766 0.5335
18 3 0.54883 0.349376 0.462977
19 2 0.348122 0.400496 0.531808
20 3 0.275372 0.398712 0.524366
21 3 0.381117 0.424082 0.569496
22 1 0.366496 0.335613 0.431708
23 2 0.430754 0.313813 0.380442
24 4 0.399889 0.334829 0.328019
25 4 0.515385 0.278224 0.393082
26 2 0.260962 0.322802 0.420691
27 4 0.235179 0.2787 0.37217
28 4 0.204031 0.35335 0.461706
29 1 0.155933 0.379987 0.236079
30 2 0.254622 0.373472 0.24425
31 3 0.279058 0.346234 0.2835
32 3 0.29883 0.400624 0.212977
33 2 0.0981223 0.349504 0.281808
34 3 0.025372 0.351288 0.274366
35 3 0.131117 0.325918 0.319496
36 1 0.116496 0.414387 0.181708
37 2 0.180754 0.436187 0.130442
38 4 0.149889 0.415171 0.0780188
39 4 0.265385 0.471776 0.143082
40 2 0.0109619 0.427198 0.170691
41 4 0.985179 0.4713 0.12217
42 4 0.954031 0.39665 0.211706
43 1 0.0940671 0.129987 0.0139205
44 2 0.995378 0.123472 0.0057503
45 3 0.970942 0.096234 0.9665
46 3 0.95117 0.150624 0.0370226
47 2 0.151878 0.0995036 0.968192
48 3 0.224628 0.101288 0.975634
49 3 0.118883 0.0759183 0.930504
50 1 0.133504 0.164387 0.068292
51 2 0.0692464 0.186187 0.119558
52 4 0.100111 0.165171 0.171981
53 4 0.984615 0.221776 0.106918
54 2 0.239038 0.177198 0.079309
55 4 0.264821 0.2213 0.12783
56 4 0.295969 0.14665 0.038294
57 1 0.844067 0.120013 0.263921
58 2 0.745378 0.126528 0.25575
59 3 0.720942 0.153766 0.2165
60 3 0.70117 0.0993761 0.287023
61 2 0.901878 0.150496 0.218192
62 3 0.974628 0.148712 0.225634
63 3 0.868883 0.174082 0.180504
64 1 0.883504 0.0856134 0.318292
65 2 0.819246 0.0638126 0.369558
66 4 0.850111 0.0848291 0.421981
67 4 0.734615 0.0282245 0.356918
68 2 0.989038 0.0728022 0.329309
69 4 0.0148213 0.0286997 0.37783
70 4 0.0459694 0.10335 0.288294
71 1 0.905933 0.370013 0.486079
72 2 0.00462216 0.376528 0.49425
73 3 0.0290576 0.403766 0.5335
74 3 0.0488305 0.349376 0.462977
75 2 0.848122 0.400496 0.531808
76 3 0.775372 0.398712 0.524366
77 3 0.881117 0.424082 0.569496
78 1 0.866496 0.335613 0.431708
79 2 0.930754 0.313813 0.380442
80 4 0.899889 0.334829 0.328019
81 4 0.0153849 0.278224 0.393082
82 2 0.760962 0.322802 0.420691
83 4 0.735179 0.2787 0.37217
84 4 0.704031 0.35335 0.461706
85 1 0.655933 0.379987 0.236079
86 2 0.754622 0.373472 0.24425
87 3 0.779058 0.346234 0.2835
88 3 0.79883 0.400624 0.212977
89 2 0.598122 0.349504 0.281808
90 3 0.525372 0.351288 0.274366
91 3 0.631117 0.325918 0.319496
92 1 0.616496 0.414387 0.181708
93 2 0.680754 0.436187 0.130442
94 4 0.649889 0.415171 0.0780188
95 4 0.765385 0.471776 0.143082
96 2 0.510962 0.427198 0.170691
97 4 0.485179 0.4713 0.12217
98 4 0.454031 0.39665 0.211706
99 1 0.594067 0.129987 0.0139205
100 2 0.495378 0.123472 0.0057503
101 3 0.470942 0.096234 0.9665
102 3 0.45117 0.150624 0.0370226
103 2 0.651878 0.0995036 0.968192
104 3 0.724628 0.101288 0.975634
105 3 0.618883 0.0759183 0.930504
106 1 0.633504 0.164387 0.068292
107 2 0.569246 0.186187 0.119558
108 4 0.600111 0.165171 0.171981
109 4 0.484615 0.221776 0.106918
110 2 0.739038 0.177198 0.079309
111 4 0.764821 0.2213 0.12783
112 4 0.795969 0.14665 0.038294
113 1 0.344067 0.620013 0.263921
114 2 0.245378 0.626528 0.25575
115 3 0.220942 0.653766 0.2165
116 3 0.20117 0.599376 0.287023
117 2 0.401878 0.650496 0.218192
118 3 0.474628 0.648712 0.225634
119 3 0.368883 0.674082 0.180504
120 1 0.383504 0.585613 0.318292
121 2 0.319246 0.563813 0.369558
122 4 0.350111 0.584829 0.421981
123 4 0.234615 0.528224 0.356918
124 2 0.489038 0.572802 0.329309
125 4 0.514821 0.5287 0.37783
126 4 0.545969 0.60335 0.288294
127 1 0.405933 0.870013 0.486079
128 2 0.504622 0.876528 0.49425
129 3 0.529058 0.903766 0.5335
130 3 0.54883 0.849376 0.462977
131 2 0.348122 0.900496 0.531808
132 3 0.275372 0.898712 0.524366
133 3 0.381117 0.924082 0.569496
134 1 0.366496 0.835613 0.431708
135 2 0.430754 0.813813 0.380442
136 4 0.399889 0.834829 0.328019
137 4 0.515385 0.778224 0.393082
138 2 0.260962 0.822802 0.420691
139 4 0.235179 0.7787 0.37217
140 4 0.204031 0.85335 0.461706
141 1 0.155933 0.879987 0.236079
142 2 0.254622 0.873472 0.24425
143 3 0.279058 0.846234 0.2835
144 3 0.29883 0.900624 0.212977
145 2 0.0981223 0.849504 0.281808
146 3 0.025372 0.851288 0.274366
147 3 0.131117 0.825918 0.319496
148 1 0.116496 0.914387 0.181708
149 2 0.180754 0.936187 0.130442
150 4 0.149889 0.915171 0.0780188
151 4 0.265385 0.971776 0.143082
152 2 0.0109619 0.927198 0.170691
153 4 0.985179 0.9713 0.12217
154 4 0.954031 0.89665 0.211706
155 1 0.0940671 0.629987 0.0139205
156 2 0.995378 0.623472 0.0057503
157 3 0.970942 0.596234 0.9665
158 3 0.95117 0.650624 0.0370226
159 2 0.151878 0.599504 0.968192
160 3 0.224628 0.601288 0.975634
161 3 0.118883 0.575918 0.930504
162 1 0.133504 0.664387 0.068292
163 2 0.0692464 0.686187 0.119558
164 4 0.100111 0.665171 0.171981
165 4 0.984615 0.721776 0.106918
166 2 0.239038 0.677198 0.079309
167 4 0.264821 0.7213 0.12783
168 4 0.295969 0.64665 0.038294
169 1 0.844067 0.620013 0.263921
170 2 0.745378 0.626528 0.25575
171 3 0.720942 0.653766 0.2165
172 3 0.70117 0.599376 0.287023
173 2 0.901878 0.650496 0.218192
174 3 0.974628 0.648712 0.225634
175 3 0.868883 0.674082 0.180504
176 1 0.883504 0.585613 0.318292
177 2 0.819246 0.563813 0.369558
178 4 0.850111 0.584829 0.421981
179 4 0.734615 0.528224 0.356918
180 2 0.989038 0.572802 0.329309
181 4 0.0148213 0.5287 0.37783
182 4 0.0459694 0.60335 0.288294
183 1 0.905933 0.870013 0.486079
184 2 0.00462216 0.876528 0.49425
185 3 0.0290576 0.903766 0.5335
186 3 0.0488305 0.849376 0.462977
187 2 0.848122 0.900496 0.531808
188 3 0.775372 0.898712 0.524366
189 3 0.881117 0.924082 0.569496
190 1 0.866496 0.835613 0.431708
191 2 0.930754 0.813813 0.380442
192 4 0.899889 0.834829 0.328019
193 4 0.0153849 0.778224 0.393082
194 2 0.760962 0.822802 0.420691
195 4 0.735179 0.7787 0.37217
196 4 0.704031 0.85335 0.461706
197 1 0.655933 0.879987 0.236079
198 2 0.754622 0.873472 0.24425
199 3 0.779058 0.846234 0.2835
200 3 0.79883 0.900624 0.212977
201 2 0.598122 0.849504 0.281808
202 3 0.525372 0.851288 0.274366
203 3 0.631117 0.825918 0.319496
204 1 0.616496 0.914387 0.181708
205 2 0.680754 0.936187 0.130442
206 4 0.649889 0.915171 0.0780188
207 4 0.765385 0.971776 0.143082
208 2 0.510962 0.927198 0.170691
209 4 0.485179 0.9713 0.12217
210 4 0.454031 0.89665 0.211706
211 1 0.594067 0.629987 0.0139205
212 2 0.495378 0.623472 0.0057503
213 3 0.470942 0.596234 0.9665
214 3 0.45117 0.650624 0.0370226
215 2 0.651878 0.599504 0.968192
216 3 0.724628 0.601288 0.975634
217 3 0.618883 0.575918 0.930504
218 1 0.633504 0.664387 0.068292
219 2 0.569246 0.686187 0.119558
220 4 0.600111 0.665171 0.171981
221 4 0.484615 0.721776 0.106918
222 2 0.739038 0.677198 0.079309
223 4 0.764821 0.7213 0.12783
224 4 0.795969 0.64665 0.038294
225 1 0.344067 0.120013 0.763921
226 2 0.245378 0.126528 0.75575
227 3 0.220942 0.153766 0.7165
228 3 0.20117 0.0993761 0.787023
229 2 0.401878 0.150496 0.718192
230 3 0.474628 0.148712 0.725634
231 3 0.368883 0.174082 0.680504
232 1 0.383504 0.0856134 0.818292
233 2 0.319246 0.0638126 0.869558
234 4 0.350111 0.0848291 0.921981
235 4 0.234615 0.0282245 0.856918
236 2 0.489038 0.0728022 0.829309
237 4 0.514821 0.0286997 0.87783
238 4 0.545969 0.10335 0.788294
239 1 0.405932 0.37001 0.986081
240 2 0.50462 0.376527 0.99425
241 3 0.529059 0.403766 0.0335003
242 3 0.548829 0.349377 0.962977
243 2 0.348123 0.400496 0.0318081
244 3 0.275372 0.398712 0.0243659
245 3 0.381116 0.424083 0.0694972
246 1 0.366504 0.335614 0.931709
247 2 0.430754 0.313814 0.880443
248 4 0.399892 0.334827 0.828023
249 4 0.515378 0.278227 0.89308
250 2 0.260966 0.322802 0.920692
251 4 0.235177 0.278698 0.872168
252 4 0.204028 0.353352 0.961708
253 1 0.155933 0.379987 0.736079
254 2 0.254622 0.373472 0.74425
255 3 0.279057 0.346234 0.7835
256 3 0.298831 0.400624 0.712977
257 2 0.0981223 0.349504 0.781808
258 3 0.025372 0.351288 0.774366
259 3 0.131117 0.325918 0.819496
260 1 0.116496 0.414387 0.681708
261 2 0.180754 0.436187 0.630442
262 4 0.149889 0.415171 0.578019
263 4 0.265385 0.471776 0.643082
264 2 0.0109619 0.427198 0.670691
265 4 0.985179 0.4713 0.62217
266 4 0.954031 0.39665 0.711706
267 1 0.0940671 0.129987 0.513921
268 2 0.995378 0.123472 0.50575
269 3 0.970942 0.096234 0.4665
270 3 0.95117 0.150624 0.537023
271 2 0.151878 0.0995036 0.468192
272 3 0.224628 0.101288 0.475634
273 3 0.118883 0.0759183 0.430504
274 1 0.133504 0.164387 0.568292
275 2 0.0692464 0.186187 0.619558
276 4 0.100111 0.165171 0.671981
277 4 0.984615 0.221776 0.606918
278 2 0.239038 0.177198 0.579309
279 4 0.264821 0.2213 0.62783
280 4 0.295969 0.14665 0.538294
281 1 0.844067 0.120013 0.763921
282 2 0.745378 0.126528 0.75575
283 3 0.720942 0.153766 0.7165
284 3 0.70117 0.0993761 0.787023
285 2 0.901878 0.150496 0.718192
286 3 0.974628 0.148712 0.725634
287 3 0.868883 0.174082 0.680504
288 1 0.883504 0.0856134 0.818292
289 2 0.819246 0.0638126 0.869558
290 4 0.850111 0.0848291 0.921981
291 4 0.734615 0.0282245 0.856918
292 2 0.989038 0.0728022 0.829309
293 4 0.0148213 0.0286997 0.87783
294 4 0.0459694 0.10335 0.788294
295 1 0.905933 0.370013 0.986079
296 2 0.00462216 0.376528 0.99425
297 3 0.0290576 0.403766 0.0334999
298 3 0.0488305 0.349376 0.962977
299 2 0.848122 0.400496 0.0318077
300 3 0.775372 0.398712 0.0243661
301 3 0.881117 0.424082 0.0694957
302 1 0.866496 0.335613 0.931708
303 2 0.930754 0.313813 0.880442
304 4 0.899889 0.334829 0.828019
305 4 0.0153849 0.278224 0.893082
306 2 0.760962 0.322802 0.920691
307 4 0.735179 0.2787 0.87217
308 4 0.704031 0.35335 0.961706
309 1 0.655933 0.379987 0.736079
310 2 0.754622 0.373472 0.74425
311 3 0.779058 0.346234 0.7835
312 3 0.79883 0.400624 0.712977
313 2 0.598122 0.349504 0.781808
314 3 0.525372 0.351288 0.774366
315 3 0.631117 0.325918 0.819496
316 1 0.616496 0.414387 0.681708
317 2 0.680754 0.436187 0.630442
318 4 0.649889 0.415171 0.578019
319 4 0.765385 0.471776 0.643082
320 2 0.510962 0.427198 0.670691
321 4 0.485179 0.4713 0.62217
322 4 0.454031 0.39665 0.711706
323 1 0.594067 0.129987 0.513921
324 2 0.495378 0.123472 0.50575
325 3 0.470942 0.096234 0.4665
326 3 0.45117 0.150624 0.537023
327 2 0.651878 0.0995036 0.468192
328 3 0.724628 0.101288 0.475634
329 3 0.618883 0.0759183 0.430504
330 1 0.633504 0.164387 0.568292
331 2 0.569246 0.186187 0.619558
332 4 0.600111 0.165171 0.671981
333 4 0.484615 0.221776 0.606918
334 2 0.739038 0.177198 0.579309
335 4 0.764821 0.2213 0.62783
336 4 0.795969 0.14665 0.538294
337 1 0.344067 0.620013 0.763921
338 2 0.245378 0.626528 0.75575
339 3 0.220942 0.653766 0.7165
340 3 0.20117 0.599376 0.787023
341 2 0.401878 0.650496 0.718192
342 3 0.474628 0.648712 0.725634
343 3 0.368883 0.674082 0.680504
344 1 0.383504 0.585613 0.818292
345 2 0.319246 0.563813 0.869558
346 4 0.350111 0.584829 0.921981
347 4 0.234615 0.528224 0.856918
348 2 0.489038 0.572802 0.829309
349 4 0.514821 0.5287 0.87783
350 4 0.545969 0.60335 0.788294
351 1 0.405932 0.87001 0.986081
352 2 0.50462 0.876527 0.99425
353 3 0.529059 0.903766 0.0335003
354 3 0.548829 0.849377 0.962977
355 2 0.348123 0.900496 0.0318081
356 3 0.275372 0.898712 0.0243659
357 3 0.381116 0.924083 0.0694972
358 1 0.366504 0.835614 0.931709
359 2 0.430754 0.813814 0.880443
360 4 0.399892 0.834827 0.828023
361 4 0.515378 0.778227 0.89308
362 2 0.260966 0.822802 0.920692
363 4 0.235177 0.778698 0.872168
364 4 0.204028 0.853352 0.961708
365 1 0.155933 0.879987 0.736079
366 2 0.254622 0.873472 0.74425
367 3 0.279057 0.846234 0.7835
368 3 0.298831 0.900624 0.712977
369 2 0.0981223 0.849504 0.781808
370 3 0.025372 0.851288 0.774366
371 3 0.131117 0.825918 0.819496
372 1 0.116496 0.914387 0.681708
373 2 0.180754 0.936187 0.630442
374 4 0.149889 0.915171 0.578019
375 4 0.265385 0.971776 0.643082
376 2 0.0109619 0.927198 0.670691
377 4 0.985179 0.9713 0.62217
378 4 0.954031 0.89665 0.711706
379 1 0.0940671 0.629987 0.513921
380 2 0.995378 0.623472 0.50575
381 3 0.970942 0.596234 0.4665
382 3 0.95117 0.650624 0.537023
383 2 0.151878 0.599504 0.468192
384 3 0.224628 0.601288 0.475634
385 3 0.118883 0.575918 0.430504
386 1 0.133504 0.664387 0.568292
387 2 0.0692464 0.686187 0.619558
388 4 0.100111 0.665171 0.671981
389 4 0.984615 0.721776 0.606918
390 2 0.239038 0.677198 0.579309
391 4 0.264821 0.7213 0.62783
392 4 0.295969 0.64665 0.538294
393 1 0.844067 0.620013 0.763921
394 2 0.745378 0.626528 0.75575
395 3 0.720942 0.653766 0.7165
396 3 0.70117 0.599376 0.787023
397 2 0.901878 0.650496 0.718192
398 3 0.974628 0.648712 0.725634
399 3 0.868883 0.674082 0.680504
400 1 0.883504 0.585613 0.818292
401 2 0.819246 0.563813 0.869558
402 4 0.850111 0.584829 0.921981
403 4 0.734615 0.528224 0.856918
404 2 0.989038 0.572802 0.829309
405 4 0.0148213 0.5287 0.87783
406 4 0.0459694 0.60335 0.788294
407 1 0.905933 0.870013 0.986079
408 2 0.00462216 0.876528 0.99425
409 3 0.0290576 0.903766 0.0334999
410 3 0.0488305 0.849376 0.962977
411 2 0.848122 0.900496 0.0318077
412 3 0.775372 0.898712 0.0243661
413 3 0.881117 0.924082 0.0694957
414 1 0.866496 0.835613 0.931708
415 2 0.930754 0.813813 0.880442
416 4 0.899889 0.834829 0.828019
417 4 0.0153849 0.778224 0.893082
418 2 0.760962 0.822802 0.920691
419 4 0.735179 0.7787 0.87217
420 4 0.704031 0.85335 0.961706
421 1 0.655933 0.879987 0.736079
422 2 0.754622 0.873472 0.74425
423 3 0.779058 0.846234 0.7835
424 3 0.79883 0.900624 0.712977
425 2 0.598122 0.849504 0.781808
426 3 0.525372 0.851288 0.774366
427 3 0.631117 0.825918 0.819496
428 1 0.616496 0.914387 0.681708
429 2 0.680754 0.936187 0.630442
430 4 0.649889 0.915171 0.578019
431 4 0.765385 0.971776 0.643082
432 2 0.510962 0.927198 0.670691
433 4 0.485179 0.9713 0.62217
434 4 0.454031 0.89665 0.711706
435 1 0.594067 0.629987 0.513921
436 2 0.495378 0.623472 0.50575
437 3 0.470942 0.596234 0.4665
438 3 0.45117 0.650624 0.537023
439 2 0.651878 0.599504 0.468192
440 3 0.724628 0.601288 0.475634
441 3 0.618883 0.575918 0.430504
442 1 0.633504 0.664387 0.568292
443 2 0.569246 0.686187 0.619558
444 4 0.600111 0.665171 0.671981
445 4 0.484615 0.721776 0.606918
446 2 0.739038 0.677198 0.579309
447 4 0.764821 0.7213 0.62783
448 4 0.795969 0.64665 0.538294
ITEM: TIMESTEP
1000
ITEM: NUMBER OF ATOMS
448
ITEM: BOX BOUNDS xy xz yz pp pp pp
-2.4949275191778314e-01 1.4242299400878483e+01 5.5540051411292457e-01
3.1465537561282897e-01 1.3170809286726994e+01 -4.4179386515225344e-01
7.5257768315815987e-01 2.1927332675141763e+01 2.1066466233982548e-01
ITEM: ATOMS id type xs ys zs
1 1 0.362301 0.0930749 0.260183
2 2 0.263371 0.0952958 0.246389
3 3 0.25347 0.125041 0.201853
4 3 0.213913 0.0663645 0.284336
5 2 0.42615 0.14953 0.219649
6 3 0.494764 0.128239 0.236476
7 3 0.403242 0.130782 0.172962
8 1 0.398426 0.0460154 0.319238
9 2 0.330562 0.033654 0.371871
10 4 0.368369 0.0292968 0.426941
11 4 0.23357 0.046206 0.360411
12 2 0.508348 0.0307485 0.331802
13 4 0.529725 0.975116 0.382376
14 4 0.569993 0.0628697 0.292154
15 1 0.397696 0.358975 0.486718
16 2 0.500768 0.387807 0.489547
17 3 0.528819 0.402914 0.536085
18 3 0.533548 0.364717 0.449066
19 2 0.340422 0.385961 0.537216
20 3 0.25945 0.367811 0.523264
21 3 0.381713 0.406887 0.578835
22 1 0.364985 0.309553 0.429848
23 2 0.438212 0.270908 0.380913
24 4 0.410479 0.287625 0.322892
25 4 0.526491 0.235241 0.393612
26 2 0.259088 0.309998 0.415603
27 4 0.225866 0.283973 0.36082
28 4 0.197338 0.326433 0.462067
29 1 0.138283 0.363587 0.229009
30 2 0.239488 0.330295 0.237385
31 3 0.242734 0.271756 0.272208
32 3 0.285965 0.351318 0.199489
33 2 0.0706667 0.336143 0.273285
34 3 0.989117 0.363481 0.260349
35 3 0.104973 0.293788 0.312936
36 1 0.102218 0.422566 0.175273
37 2 0.173402 0.448813 0.124053
38 4 0.144075 0.438879 0.0670364
39 4 0.254292 0.487194 0.144079
40 2 0.994105 0.463071 0.167625
41 4 0.976094 0.517691 0.118026
42 4 0.928334 0.429597 0.204855
43 1 0.11417 0.138118 0.0113906
44 2 0.017172 0.117493 0.000606311
45 3 0.00776323 0.0819925 0.955885
46 3 0.970964 0.138489 0.0400627
47 2 0.18305 0.106232 0.962524
48 3 0.252757 0.131899 0.981555
49 3 0.145677 0.117691 0.918891
50 1 0.158002 0.17641 0.0676105
51 2 0.0861363 0.199391 0.121868
52 4 0.114127 0.181779 0.17836
53 4 0.004438 0.25009 0.108397
54 2 0.264234 0.19535 0.0769383
55 4 0.282131 0.243944 0.130221
56 4 0.328155 0.180875 0.0343197
57 1 0.85547 0.112794 0.261642
58 2 0.754644 0.118531 0.248122
59 3 0.735287 0.15501 0.203712
60 3 0.70634 0.102079 0.284319
61 2 0.925083 0.151118 0.220216
62 3 0.998401 0.146169 0.237075
63 3 0.89411 0.184281 0.179047
64 1 0.893558 0.0672049 0.319684
65 2 0.825003 0.0544859 0.373944
66 4 0.862424 0.0629447 0.428668
67 4 0.734021 0.0300515 0.362149
68 2 0.998521 0.0279191 0.330597
69 4 0.0159804 0.965393 0.3798
70 4 0.0643967 0.0547677 0.292328
71 1 0.901731 0.370299 0.479195
72 2 0.00386581 0.394022 0.475824
73 3 0.0207488 0.427403 0.52134
74 3 0.0328261 0.347076 0.444657
75 2 0.84301 0.40399 0.532155
76 3 0.767191 0.377918 0.524545
77 3 0.879629 0.427537 0.57148
78 1 0.862275 0.313247 0.429664
79 2 0.92561 0.27479 0.375241
80 4 0.89068 0.302483 0.319798
81 4 0.00433776 0.219646 0.385633
82 2 0.75276 0.299251 0.423517
83 4 0.721792 0.253756 0.373589
84 4 0.690465 0.329035 0.466148
85 1 0.639148 0.37852 0.231425
86 2 0.732348 0.398884 0.256285
87 3 0.749927 0.344133 0.29128
88 3 0.776815 0.439826 0.214188
89 2 0.577484 0.310544 0.263307
90 3 0.502885 0.315713 0.241673
91 3 0.616822 0.281747 0.304093
92 1 0.602462 0.428166 0.172818
93 2 0.6727 0.445156 0.123921
94 4 0.642546 0.443905 0.0645617
95 4 0.766607 0.456036 0.139332
96 2 0.494831 0.450907 0.158177
97 4 0.469311 0.518568 0.112784
98 4 0.429814 0.408289 0.191675
99 1 0.612774 0.129264 0.00648869
100 2 0.50997 0.126603 0.995509
101 3 0.496399 0.0952482 0.952567
102 3 0.474669 0.153151 0.0330509
103 2 0.676476 0.083558 0.962294
104 3 0.757984 0.0872182 0.978249
105 3 0.635793 0.0511379 0.924191
106 1 0.64797 0.172005 0.0648417
107 2 0.575794 0.216469 0.114287
108 4 0.595456 0.188259 0.171425
109 4 0.499744 0.27335 0.0966512
110 2 0.752988 0.183676 0.0767585
111 4 0.77934 0.233504 0.126838
112 4 0.817967 0.14761 0.0356731
113 1 0.355327 0.612367 0.256881
114 2 0.255188 0.600479 0.238822
115 3 0.239268 0.649946 0.202544
116 3 0.209926 0.558076 0.272727
117 2 0.419501 0.661131 0.214606
118 3 0.496508 0.656992 0.228047
119 3 0.382183 0.676652 0.173325
120 1 0.397173 0.565043 0.314129
121 2 0.328982 0.527356 0.364602
122 4 0.359151 0.535791 0.421503
123 4 0.239054 0.505571 0.348737
124 2 0.503434 0.536397 0.323152
125 4 0.525486 0.478446 0.371574
126 4 0.568664 0.580015 0.287559
127 1 0.404766 0.853905 0.499151
128 2 0.507111 0.872515 0.498561
129 3 0.537792 0.891141 0.54259
130 3 0.548528 0.859278 0.459946
131 2 0.346613 0.886866 0.551676
132 3 0.27475 0.914123 0.529282
133 3 0.394534 0.917378 0.587503
134 1 0.359032 0.814817 0.443605
135 2 0.414954 0.766331 0.387274
136 4 0.376352 0.782965 0.332908
137 4 0.500837 0.721048 0.400541
138 2 0.248267 0.816908 0.433647
139 4 0.216668 0.775604 0.382849
140 4 0.192449 0.862029 0.475081
141 1 0.131918 0.870901 0.238459
142 2 0.235562 0.86297 0.249994
143 3 0.251246 0.836449 0.294515
144 3 0.275965 0.890078 0.21265
145 2 0.0692099 0.810089 0.275346
146 3 0.983518 0.836103 0.267187
147 3 0.111189 0.77209 0.31148
148 1 0.0947237 0.933455 0.186034
149 2 0.160796 0.966242 0.133864
150 4 0.121576 0.954775 0.0786116
151 4 0.248947 0.999191 0.143457
152 2 0.984684 0.954062 0.178775
153 4 0.958345 0.0185142 0.13363
154 4 0.922965 0.90851 0.214727
155 1 0.101217 0.643655 0.00771241
156 2 0.997645 0.634072 0.00506709
157 3 0.976229 0.604203 0.961424
158 3 0.956753 0.647851 0.0488409
159 2 0.167544 0.616856 0.96004
160 3 0.239948 0.613304 0.98154
161 3 0.141182 0.578275 0.923067
162 1 0.140766 0.688097 0.0634361
163 2 0.076592 0.71135 0.119
164 4 0.107161 0.67719 0.17327
165 4 0.992674 0.76458 0.108133
166 2 0.249965 0.69582 0.079998
167 4 0.270516 0.744871 0.130612
168 4 0.315455 0.669045 0.0392987
169 1 0.851123 0.6134 0.261911
170 2 0.750376 0.639646 0.24906
171 3 0.737882 0.653054 0.201079
172 3 0.707919 0.591499 0.279742
173 2 0.920998 0.653031 0.220955
174 3 0.999965 0.635475 0.231504
175 3 0.884334 0.709134 0.188125
176 1 0.887367 0.554224 0.314763
177 2 0.822744 0.526787 0.37
178 4 0.853505 0.561234 0.424406
179 4 0.734166 0.506581 0.35829
180 2 0.997482 0.537196 0.328943
181 4 0.023409 0.48909 0.379689
182 4 0.0611342 0.577156 0.291539
183 1 0.896662 0.884751 0.492111
184 2 0.999617 0.9013 0.490218
185 3 0.0180028 0.939177 0.533364
186 3 0.0413189 0.875284 0.449822
187 2 0.837521 0.925432 0.541814
188 3 0.761171 0.912073 0.532299
189 3 0.874075 0.977461 0.567653
190 1 0.85381 0.829022 0.442139
191 2 0.916963 0.77437 0.393729
192 4 0.87493 0.774292 0.338575
193 4 0.00427055 0.734344 0.408522
194 2 0.742882 0.831908 0.43
195 4 0.709575 0.796193 0.377934
196 4 0.685844 0.869308 0.472896
197 1 0.630952 0.871837 0.23893
198 2 0.730671 0.875545 0.257023
199 3 0.757066 0.833533 0.297418
200 3 0.76941 0.917673 0.218799
201 2 0.562784 0.827175 0.278922
202 3 0.492222 0.827538 0.25714
203 3 0.586043 0.835832 0.327866
204 1 0.595421 0.920678 0.181607
205 2 0.660697 0.955679 0.130528
206 4 0.623805 0.957455 0.0734289
207 4 0.751471 0.979335 0.14325
208 2 0.487235 0.944974 0.165267
209 4 0.46605 0.0130307 0.121684
210 4 0.421757 0.90771 0.201565
211 1 0.597117 0.634406 0.0014096
212 2 0.491724 0.636825 0.992801
213 3 0.486991 0.579363 0.958881
214 3 0.457408 0.655777 0.0350497
215 2 0.659765 0.586105 0.956403
216 3 0.732502 0.56793 0.980971
217 3 0.629079 0.584593 0.910833
218 1 0.641515 0.67041 0.0582922
219 2 0.575642 0.7108 0.110069
220 4 0.603718 0.683968 0.167438
221 4 0.498202 0.769224 0.0952684
222 2 0.751463 0.675931 0.0701408
223 4 0.780703 0.72704 0.118009
224 4 0.810399 0.625151 0.0317746
225 1 0.356285 0.124936 0.764286
226 2 0.254142 0.117939 0.749967
227 3 0.229985 0.147853 0.706112
228 3 0.215436 0.0814406 0.785095
229 2 0.415274 0.184296 0.726697
230 3 0.498456 0.170907 0.746815
231 3 0.38345 0.21691 0.687605
232 1 0.398577 0.0791884 0.821771
233 2 0.33454 0.0449004 0.876036
234 4 0.364235 0.0631468 0.932918
235 4 0.251696 0.00402269 0.865965
236 2 0.504775 0.0542677 0.831869
237 4 0.530456 0.988537 0.875655
238 4 0.568128 0.0949734 0.792376
239 1 0.405249 0.368629 0.990898
240 2 0.507535 0.383904 0.995394
241 3 0.524226 0.419703 0.0454821
242 3 0.550495 0.342382 0.96498
243 2 0.336677 0.400201 0.0367666
244 3 0.261902 0.394796 0.0187039
245 3 0.366798 0.414585 0.0809376
246 1 0.369887 0.320245 0.934477
247 2 0.43865 0.283163 0.88209
248 4 0.410628 0.307802 0.825473
249 4 0.520294 0.233249 0.899842
250 2 0.264956 0.299238 0.920156
251 4 0.244055 0.251243 0.867801
252 4 0.199458 0.335404 0.958039
253 1 0.149997 0.393602 0.741114
254 2 0.254309 0.383548 0.751585
255 3 0.273453 0.343915 0.794773
256 3 0.292364 0.422533 0.714402
257 2 0.0891011 0.35071 0.788235
258 3 0.0172838 0.382657 0.779151
259 3 0.123746 0.335136 0.829595
260 1 0.107808 0.44116 0.685806
261 2 0.175245 0.452932 0.627764
262 4 0.130073 0.460098 0.575637
263 4 0.268858 0.448844 0.638746
264 2 0.00239473 0.468007 0.67318
265 4 0.979575 0.512769 0.619437
266 4 0.943492 0.440536 0.718257
267 1 0.10141 0.128732 0.50625
268 2 0.99857 0.122002 0.496706
269 3 0.981874 0.104183 0.450094
270 3 0.959059 0.159219 0.534627
271 2 0.163893 0.0911107 0.460369
272 3 0.244888 0.0979064 0.474564
273 3 0.1295 0.0586512 0.420799
274 1 0.138482 0.175313 0.562379
275 2 0.0725437 0.225782 0.610359
276 4 0.0982124 0.221342 0.66926
277 4 0.996565 0.282733 0.590584
278 2 0.248727 0.1723 0.575677
279 4 0.269706 0.22074 0.626839
280 4 0.311707 0.133063 0.537085
281 1 0.858 0.12142 0.761216
282 2 0.753258 0.134161 0.754142
283 3 0.732077 0.161179 0.706477
284 3 0.708787 0.0995387 0.789903
285 2 0.9173 0.167332 0.715629
286 3 0.993329 0.160814 0.729143
287 3 0.877683 0.2178 0.68845
288 1 0.897753 0.0618127 0.812758
289 2 0.834726 0.0296911 0.867837
290 4 0.87176 0.0611512 0.922169
291 4 0.749649 0.99341 0.860124
292 2 0.00715653 0.0380827 0.823773
293 4 0.0291328 0.973537 0.870691
294 4 0.0697282 0.0721442 0.784815
295 1 0.90558 0.354198 0.990701
296 2 0.00903615 0.366745 0.995437
297 3 0.0298769 0.380903 0.0425567
298 3 0.0483846 0.345004 0.956068
299 2 0.843498 0.385883 0.038079
300 3 0.761509 0.360973 0.0265079
301 3 0.881101 0.407019 0.0777035
302 1 0.86628 0.301129 0.936516
303 2 0.936684 0.258646 0.886349
304 4 0.912202 0.286495 0.829604
305 4 0.0237262 0.22147 0.901784
306 2 0.758739 0.292204 0.924568
307 4 0.736625 0.2498 0.871858
308 4 0.695727 0.327178 0.966043
309 1 0.64631 0.387697 0.73676
310 2 0.749592 0.366286 0.749677
311 3 0.762985 0.3461 0.795908
312 3 0.791762 0.404054 0.716953
313 2 0.579473 0.354517 0.781167
314 3 0.497056 0.376911 0.767584
315 3 0.620849 0.310333 0.818271
316 1 0.616952 0.442294 0.680575
317 2 0.686843 0.473939 0.629815
318 4 0.659647 0.460913 0.570833
319 4 0.77104 0.509716 0.643961
320 2 0.507623 0.464689 0.66976
321 4 0.480978 0.514037 0.619267
322 4 0.442524 0.441298 0.711874
323 1 0.607247 0.140598 0.509414
324 2 0.506387 0.124642 0.497717
325 3 0.500792 0.0784333 0.451448
326 3 0.453348 0.151255 0.530955
327 2 0.681919 0.103355 0.46973
328 3 0.756925 0.132353 0.481676
329 3 0.652996 0.0513356 0.435817
330 1 0.634555 0.200564 0.564426
331 2 0.559025 0.236527 0.609625
332 4 0.581654 0.222118 0.669788
333 4 0.478126 0.278472 0.587122
334 2 0.740661 0.215821 0.584453
335 4 0.75328 0.262727 0.638223
336 4 0.810138 0.184638 0.548623
337 1 0.352356 0.626597 0.763635
338 2 0.250512 0.655304 0.766319
339 3 0.219064 0.684101 0.723336
340 3 0.225799 0.65808 0.810378
341 2 0.411597 0.655077 0.711209
342 3 0.488368 0.627791 0.72199
343 3 0.382181 0.709091 0.678628
344 1 0.401596 0.570135 0.81452
345 2 0.334845 0.538531 0.865884
346 4 0.364226 0.550109 0.924111
347 4 0.248697 0.510903 0.84911
348 2 0.512524 0.543003 0.821051
349 4 0.540166 0.478448 0.865981
350 4 0.568143 0.5815 0.779474
351 1 0.394374 0.870355 0.992545
352 2 0.499137 0.885384 0.998852
353 3 0.510338 0.92573 0.0452105
354 3 0.533301 0.890564 0.954687
355 2 0.331911 0.901425 0.0420983
356 3 0.252166 0.912113 0.0276502
357 3 0.372028 0.907813 0.0826198
358 1 0.354094 0.827174 0.937377
359 2 0.4132 0.781968 0.88379
360 4 0.385439 0.814578 0.828353
361 4 0.49991 0.739628 0.896018
362 2 0.24435 0.813585 0.929887
363 4 0.215795 0.764164 0.880766
364 4 0.182603 0.865736 0.966301
365 1 0.137794 0.88549 0.743893
366 2 0.239103 0.887045 0.761802
367 3 0.247779 0.859475 0.809416
368 3 0.292761 0.925291 0.733925
369 2 0.0711154 0.839243 0.782591
370 3 0.991135 0.850255 0.763269
371 3 0.0986141 0.803434 0.823763
372 1 0.104363 0.938339 0.68657
373 2 0.177688 0.949971 0.635671
374 4 0.141657 0.962269 0.579697
375 4 0.272508 0.943827 0.650003
376 2 0.996736 0.968188 0.671183
377 4 0.982251 0.0387907 0.628649
378 4 0.925679 0.931483 0.70528
379 1 0.109642 0.633478 0.507643
380 2 0.00621313 0.617236 0.502093
381 3 0.986843 0.599017 0.456673
382 3 0.963863 0.651318 0.540082
383 2 0.175013 0.59532 0.463768
384 3 0.248267 0.615801 0.48378
385 3 0.147782 0.549559 0.427197
386 1 0.144276 0.683931 0.563457
387 2 0.0700544 0.731675 0.611453
388 4 0.086789 0.723067 0.670414
389 4 0.994542 0.783988 0.587145
390 2 0.249621 0.68221 0.581011
391 4 0.273719 0.712416 0.638274
392 4 0.317273 0.642174 0.545344
393 1 0.844137 0.620192 0.75358
394 2 0.743199 0.613252 0.741779
395 3 0.718604 0.640051 0.696594
396 3 0.715837 0.564006 0.783963
397 2 0.901725 0.667289 0.708762
398 3 0.971124 0.67802 0.732913
399 3 0.859623 0.677472 0.663735
400 1 0.887458 0.573098 0.810554
401 2 0.824614 0.541209 0.863989
402 4 0.871841 0.518796 0.916554
403 4 0.733575 0.514982 0.855524
404 2 0.99579 0.559308 0.822994
405 4 0.0264111 0.503805 0.871182
406 4 0.055243 0.601283 0.783732
407 1 0.887352 0.880486 0.997473
408 2 0.988837 0.897156 0.00572263
409 3 0.999954 0.927523 0.0527759
410 3 0.0329419 0.864487 0.969381
411 2 0.818663 0.914148 0.0435841
412 3 0.743024 0.897643 0.0296921
413 3 0.852176 0.948344 0.0815063
414 1 0.853705 0.828896 0.942202
415 2 0.923302 0.788884 0.892104
416 4 0.902268 0.806031 0.834531
417 4 0.00846648 0.748071 0.911677
418 2 0.746706 0.806574 0.930868
419 4 0.732568 0.749202 0.881951
420 4 0.683503 0.828825 0.973888
421 1 0.642332 0.886634 0.753032
422 2 0.745984 0.878154 0.762218
423 3 0.767169 0.828215 0.799651
424 3 0.775262 0.90334 0.720174
425 2 0.576282 0.840429 0.793842
426 3 0.499078 0.853349 0.779618
427 3 0.615141 0.802872 0.832575
428 1 0.60431 0.939349 0.697746
429 2 0.676388 0.963883 0.644926
430 4 0.633916 0.952568 0.590027
431 4 0.745828 0.0274672 0.654944
432 2 0.494835 0.961429 0.685165
433 4 0.4732 0.0306492 0.642441
434 4 0.430808 0.929352 0.724796
435 1 0.59475 0.633194 0.514238
436 2 0.493903 0.611383 0.517455
437 3 0.469443 0.580749 0.472504
438 3 0.463763 0.647081 0.557723
439 2 0.658186 0.58978 0.469814
440 3 0.728727 0.626079 0.472908
441 3 0.614171 0.55182 0.433244
442 1 0.633031 0.699722 0.562569
443 2 0.568113 0.7443 0.615673
444 4 0.603679 0.728472 0.672638
445 4 0.485187 0.788809 0.602575
446 2 0.740504 0.719214 0.56664
447 4 0.760624 0.7761 0.615613
448 4 0.802772 0.680001 0.52728
ITEM: TIMESTEP
2000
ITEM: NUMBER OF ATOMS
448
ITEM: BOX BOUNDS xy xz yz pp pp pp
-6.8681546766735713e-01 1.4926015203976942e+01 1.2498050182639520e+00