LAMMPS data file via write_data, version 15 Apr 2020, timestep = 80000

448 atoms
4 atom types

2.2510243984226452e-01 1.3654097560158240e+01 xlo xhi
-2.4131978951296240e-01 1.3516119789512864e+01 ylo yhi
1.7160027572998082e+00 2.0963907601000344e+01 zlo zhi
5.6348477656259083e-02 -1.7093561196487148e+00 1.1168959471409852e-01 xy xz yz

Masses

1 12.0107
2 14.0067
3 1.00794
4 15.9994

Atoms # full

1 1 1 3.0107712490622962e-01 4.6418660500126361e+00 1.3014962853431427e+00 6.9083692280185796e+00 0 0 0
2 1 2 -4.5849666346860901e-01 3.3041758988589645e+00 1.5245083384650135e+00 6.5731236533618711e+00 0 0 0
3 1 3 3.6797525922456542e-01 3.2287160331339742e+00 2.1243953872891432e+00 5.7268492514560565e+00 0 0 0
4 1 3 3.7515698268161735e-01 2.5656724499185923e+00 1.0235522775825106e+00 7.1627975420994909e+00 0 0 0
5 1 2 -4.1546607528952023e-01 5.6319330336183091e+00 1.7887064035158491e+00 6.0530205506495856e+00 0 0 0
6 1 3 3.8463771886136383e-01 6.5831956840040595e+00 1.3273356871303468e+00 6.2835939424342664e+00 0 0 0
7 1 3 3.5391622463958139e-01 5.2392397554517283e+00 2.4300225269982727e+00 5.2441875510898068e+00 0 0 0
8 1 1 3.2061025424012450e-02 4.9309088685227982e+00 4.9250817146229897e-01 8.0353674020508734e+00 0 0 0
9 1 2 2.6988267928198556e-01 3.8536047683295673e+00 1.3994071380540057e-01 9.0511429811351185e+00 0 0 0
10 1 4 -3.8934287358593739e-01 4.1788385150693870e+00 3.8805702407501919e-01 1.0273270087707425e+01 0 0 0
11 1 4 -3.1488080269272190e-01 2.7840130063303130e+00 1.3403594498592891e+01 8.6842730824762775e+00 0 -1 0
12 1 2 2.5605207832481491e-01 6.3299172414498504e+00 1.0353060031905109e-01 8.3203748632726757e+00 0 0 0
13 1 4 -3.9124700608609875e-01 6.5862064409867180e+00 1.3199719982164481e+01 9.3862089415374079e+00 0 -1 0
14 1 4 -4.0009974655445618e-01 7.2984057970621761e+00 7.2693343337991212e-01 7.6626950617981917e+00 0 0 0
15 1 1 2.9082299873713807e-01 4.9345093122317030e+00 4.6275534152251652e+00 1.1086757421596788e+01 0 0 0
16 1 2 -4.4649134059800344e-01 6.2823770953151197e+00 4.9116787303511922e+00 1.1271045684270225e+01 0 0 0
17 1 3 3.7152958459842983e-01 6.5848863623291489e+00 5.4297010774791383e+00 1.2212063780711762e+01 0 0 0
18 1 3 3.6627829545569551e-01 6.8418830673982898e+00 4.3892797801543537e+00 1.0628603749529233e+01 0 0 0
19 1 2 -3.9564122122920359e-01 3.9919993090371935e+00 5.1396248349935618e+00 1.2050603190690117e+01 0 0 0
20 1 3 3.8182517649554248e-01 2.9686013406943692e+00 4.8406255887338228e+00 1.1861850367291677e+01 0 0 0
21 1 3 3.6903147537631420e-01 4.5579671383537512e+00 5.2281297698233216e+00 1.2942485251825399e+01 0 0 0
22 1 1 4.1360179614933226e-02 4.3812726824545472e+00 3.8675958697454398e+00 1.0026614496211369e+01 0 0 0
23 1 2 2.7899106904488197e-01 5.3385438667169778e+00 3.4545608946138517e+00 8.9000250729071144e+00 0 0 0
24 1 4 -3.6035550354393509e-01 5.0641024289941861e+00 3.9559856550883348e+00 7.7427043262786839e+00 0 0 0
25 1 4 -3.7207771500096781e-01 6.3512944605707231e+00 2.7280852118040482e+00 9.1665686632308621e+00 0 0 0
26 1 2 2.7179801876308535e-01 2.9607027282185907e+00 3.5499908104602520e+00 9.8208607689598111e+00 0 0 0
27 1 4 -3.4444674581593054e-01 2.7523062160052958e+00 2.7585910437335510e+00 8.8452395088031217e+00 0 0 0
28 1 4 -3.7335294694983967e-01 2.0409894605806778e+00 4.0875912297270585e+00 1.0580381456011528e+01 0 0 0
29 1 1 2.4571799910645989e-01 1.9818483312527535e+00 5.2105340348526594e+00 6.0821540618686392e+00 0 0 0
30 1 2 -4.3162801290958669e-01 3.3760991335826374e+00 4.9176024253278170e+00 6.1834006403654493e+00 0 0 0
31 1 3 3.5925715467101460e-01 3.5282053635498252e+00 4.8164596258945540e+00 7.2067391423403597e+00 0 0 0
32 1 3 3.8086452624315070e-01 3.9245702566532099e+00 5.3837578422118169e+00 5.4125878750990442e+00 0 0 0
33 1 2 -3.9144278671565147e-01 1.1479560083352296e+00 4.7588116947279389e+00 7.1491221250454533e+00 0 0 0
34 1 3 3.8516423142210793e-01 1.7013563835148371e-01 4.8312895002205192e+00 6.6909405098142472e+00 0 0 0
35 1 3 3.4743204828071472e-01 1.6956589551436925e+00 3.9522327866567819e+00 7.5517620770792098e+00 0 0 0
36 1 1 3.1343554684061574e-02 1.5559152269365586e+00 5.8874354194492575e+00 4.9159884351632046e+00 0 0 0
37 1 2 2.4879583739587532e-01 2.4662149508046549e+00 6.3038625328882851e+00 3.8137395578686362e+00 0 0 0
38 1 4 -3.7598769181180658e-01 2.1053493799844163e+00 6.1488254364296901e+00 2.5990249723859788e+00 0 0 0
39 1 4 -3.3949988565041356e-01 3.5846433464905658e+00 6.8848401960605035e+00 4.1617284424675614e+00 0 0 0
40 1 2 3.0262783973665774e-01 1.0413741155747216e-01 6.2128630602236781e+00 4.7405411113025604e+00 0 0 0
41 1 4 -4.1455256487979492e-01 1.3199636944072610e+01 6.9882818985028132e+00 3.7857384438764150e+00 0 0 0
42 1 4 -3.8165641834109126e-01 1.2708156780086220e+01 5.6545991653765855e+00 5.5622015370238538e+00 0 0 0
43 1 1 3.1995674657828005e-01 1.5409318793315907e+00 1.9498606355313406e+00 1.7832888176908002e+00 0 0 0
44 1 2 -4.5963689821900888e-01 1.1864055888921618e+01 1.7512631281048503e+00 2.0963843661284439e+01 0 0 -1
45 1 3 3.4377555572725682e-01 1.1752982827327241e+01 9.0149899831566938e-01 2.0318880986949367e+01 0 0 0
46 1 3 3.8784478655562632e-01 1.2951585566056329e+01 1.9077950079111385e+00 2.4761660733762518e+00 0 0 0
47 1 2 -4.3657141827278545e-01 7.3276376181250691e-01 1.5432699315018692e+00 2.0113820062093470e+01 0 0 0
48 1 3 3.8717717355923897e-01 1.7541683933343797e+00 1.7695331344252798e+00 2.0227364422050336e+01 0 0 0
49 1 3 3.6760056273603042e-01 2.6122311458760872e-01 9.8638018624716017e-01 1.9344238464014293e+01 0 0 0
50 1 1 4.2189357096517631e-02 2.0834340494513039e+00 2.6089721984538197e+00 2.8995084235832085e+00 0 0 0
51 1 2 2.7119045394583818e-01 1.1359812845360158e+00 3.0311657369338314e+00 4.0284500242906933e+00 0 0 0
52 1 4 -3.8170484454336129e-01 1.5850140612273884e+00 2.7799187113475901e+00 5.2089986391035215e+00 0 0 0
53 1 4 -3.1810465101039059e-01 1.3413573899504009e+01 3.4930165895446876e+00 3.7491775079618375e+00 0 0 0
54 1 2 2.9245203283329402e-01 3.5276963310907097e+00 2.8293772249052842e+00 3.2115523571112128e+00 0 0 0
55 1 4 -3.6228787945411495e-01 3.9160781666868902e+00 3.5320514910158707e+00 4.2166886799865555e+00 0 0 0
56 1 4 -3.9170476771673485e-01 4.3441626587423228e+00 2.3876660450835532e+00 2.3113443901348485e+00 0 0 0
57 1 1 2.9460397614701450e-01 1.1176759902485477e+01 1.2584078765497180e+00 6.7956822345054979e+00 0 0 0
58 1 2 -4.3126252012074839e-01 9.7433118521299793e+00 1.4495719987303284e+00 6.6718245606293261e+00 0 0 0
59 1 3 3.5375114293546067e-01 9.5993716099783661e+00 2.3203759950487806e+00 6.1525682131798964e+00 0 0 0
60 1 3 3.7354141332856694e-01 9.2862879170591519e+00 1.1753237999817272e+00 7.5761694643270614e+00 0 0 0
61 1 2 -4.2635627764302020e-01 1.2109112064220337e+01 1.8328281297288669e+00 5.9625230811420806e+00 0 0 0
62 1 3 3.8008103404675608e-01 1.3178492928340205e+01 1.6891569191214681e+00 6.2473968533389037e+00 0 0 0
63 1 3 3.7680306471756603e-01 1.1633297000219631e+01 2.3201504781874314e+00 5.2207674596051667e+00 0 0 0
64 1 1 3.8425421942060403e-02 1.1630439000310467e+01 5.4707607555996340e-01 7.9425003264841312e+00 0 0 0
65 1 2 2.5146992964350606e-01 1.0622936485212263e+01 7.4915256759443771e-02 8.9780989840765919e+00 0 0 0
66 1 4 -3.8282554987591044e-01 1.0856917330332015e+01 3.9879317257227243e-01 1.0205616414596541e+01 0 0 0
67 1 4 -3.4425544746204895e-01 9.6731450612118657e+00 1.3127759305657479e+01 8.6532261266773673e+00 0 -1 0
68 1 2 2.7330177592896882e-01 1.3078702653492217e+01 2.2253327712469678e-01 8.1004815767347154e+00 0 0 0
69 1 4 -3.5709790037419603e-01 -6.7258469407180832e-02 1.3179319082760070e+01 9.0854676415755371e+00 0 -1 0
70 1 4 -3.9626829031842803e-01 5.6689077503715490e-01 7.3075486789294131e-01 7.3515303548369664e+00 0 0 0
71 1 1 2.8651030592071980e-01 1.1557118340012329e+01 4.5037380516183481e+00 1.1044703297613095e+01 0 0 0
72 1 2 -4.0455490923969867e-01 -5.4352087211683309e-01 4.8109409241736723e+00 1.1241417945331703e+01 0 0 0
73 1 3 3.7149386308488397e-01 -3.7914743362830899e-01 5.2613702153617368e+00 1.2272541162869693e+01 0 0 0
74 1 3 3.7069739225920034e-01 6.0952678712968833e-02 4.2923844381304512e+00 1.0494963374639841e+01 0 0 0
75 1 2 -4.1613654447792470e-01 1.0565579322347894e+01 4.8560596856576890e+00 1.1997332820158706e+01 0 0 0
76 1 3 3.8364481694723201e-01 9.6388522509898564e+00 5.0962818891505943e+00 1.1457981740076049e+01 0 0 0
77 1 3 3.7027552621292664e-01 1.0990341195767410e+01 5.2646432690882685e+00 1.2875145409711125e+01 0 0 0
78 1 1 1.5981924148439079e-02 1.1145881927924075e+01 3.9290688687548565e+00 9.7955395121999462e+00 0 0 0
79 1 2 2.6479350020292125e-01 1.2176700062475140e+01 3.5546647633997415e+00 8.7708014305111952e+00 0 0 0
80 1 4 -3.6158165162276923e-01 1.2042856382785560e+01 3.8976181251508102e+00 7.5515481627412786e+00 0 0 0
81 1 4 -3.7935734452410003e-01 -2.8643649441405727e-01 2.7921856726025305e+00 9.1623739908398392e+00 0 0 0
82 1 2 2.4374702889990013e-01 9.7076665436157707e+00 3.7029832026772080e+00 9.5481517546540911e+00 0 0 0
83 1 4 -4.0774056098609829e-01 9.4511829637535385e+00 2.8814413592311263e+00 8.6022764145008921e+00 0 0 0
84 1 4 -4.0512513795913196e-01 8.7752823119325907e+00 4.2911533499963230e+00 1.0265513426375300e+01 0 0 0
85 1 1 3.0517774736420233e-01 8.6946916319677339e+00 5.2651655461994755e+00 6.3316880210915665e+00 0 0 0
86 1 2 -4.4101466571957831e-01 1.0076167899300330e+01 5.1678619697354558e+00 6.6755664724685113e+00 0 0 0
87 1 3 3.4391343000423164e-01 1.0263828044233199e+01 4.7518686839213347e+00 7.6591770037978177e+00 0 0 0
88 1 3 3.8403301201659779e-01 1.0758577779549478e+01 5.5012204867975090e+00 5.9510806247224464e+00 0 0 0
89 1 2 -4.0975535756413145e-01 7.7426043143251251e+00 4.8581758648827487e+00 7.2421200136357715e+00 0 0 0
90 1 3 3.8603041197862592e-01 6.6873955336933681e+00 5.0077103600244683e+00 6.8359340765698411e+00 0 0 0
91 1 3 3.6833427800595842e-01 8.1266430924914133e+00 4.3060433911506042e+00 8.0683223440470542e+00 0 0 0
92 1 1 2.4197769187073778e-02 8.2796574180954732e+00 5.9343919337292936e+00 5.1584128252981785e+00 0 0 0
93 1 2 2.7557506712585778e-01 9.2414003268958869e+00 6.3899712467336256e+00 4.0475342222368633e+00 0 0 0
94 1 4 -3.5782356201970383e-01 8.8604994078485095e+00 6.2131797096230272e+00 2.8158978553655469e+00 0 0 0
95 1 4 -3.7172638690928639e-01 1.0364553116413829e+01 6.8218135977690295e+00 4.4123033518361083e+00 0 0 0
96 1 2 2.8202350700416051e-01 6.8553945161879239e+00 6.1516996107646778e+00 4.8281872649664397e+00 0 0 0
97 1 4 -3.6745962773794844e-01 6.6052569680778914e+00 6.8079995786038339e+00 3.7691849858179354e+00 0 0 0
98 1 4 -3.9588794488571633e-01 5.8914510173302279e+00 5.7265959549659771e+00 5.6030501103892405e+00 0 0 0
99 1 1 2.8065215583179803e-01 8.2370800286635522e+00 1.6538817190068265e+00 2.1721072591526496e+00 0 0 0
100 1 2 -4.6318917631552325e-01 6.8678955750037565e+00 1.6087847066676459e+00 1.8311204539728072e+00 0 0 0
101 1 3 3.5440479750611031e-01 5.0369610874077670e+00 1.0156584385829162e+00 2.0366271343642772e+01 0 0 0
102 1 3 3.8813619072458355e-01 6.2611120035071473e+00 2.0882960510045057e+00 2.4692517767188367e+00 0 0 0
103 1 2 -4.0368091834565695e-01 7.4904409170239639e+00 1.2493612935788136e+00 2.0577355759437893e+01 0 0 0
104 1 3 3.5856485864830134e-01 1.0247916772395291e+01 1.2572594583435213e+00 1.9825180164604808e+00 0 0 1
105 1 3 3.5404248973629915e-01 7.1019411562764123e+00 5.5348801843738038e-01 1.9904985092264450e+01 0 0 0
106 1 1 3.5165766361468440e-02 8.6739831418876836e+00 2.3666969165720202e+00 3.3270931088602245e+00 0 0 0
107 1 2 2.6976729813085548e-01 7.6130359684540903e+00 2.9583858090999633e+00 4.2282155627379776e+00 0 0 0
108 1 4 -3.6558806336796451e-01 7.8245947294653870e+00 2.8075433562793979e+00 5.4757298333694546e+00 0 0 0
109 1 4 -3.6475883715185603e-01 6.6695311901870591e+00 3.6575861237353839e+00 3.6951823179369097e+00 0 0 0
110 1 2 2.5358811532144471e-01 1.0093850492765700e+01 2.6907095141039239e+00 3.5952145705447727e+00 0 0 0
111 1 4 -3.4961980983053542e-01 1.0267766082764666e+01 3.6138639782054049e+00 4.4710773928594083e+00 0 0 0
112 1 4 -4.1030800324692751e-01 1.1099850954441735e+01 2.1921056536412618e+00 2.9569377574105102e+00 0 0 0
113 1 1 2.9336279392424947e-01 4.3863709379716189e+00 8.2239815880787646e+00 6.7091687965219071e+00 0 0 0
114 1 2 -4.6380957451107446e-01 3.0087427672274787e+00 8.2220661982048231e+00 6.3291642159342656e+00 0 0 0
115 1 3 3.5406057968213123e-01 2.8354122270086743e+00 8.9316404806556129e+00 5.6099405870423986e+00 0 0 0
116 1 3 3.6504121164586251e-01 2.3717957326727204e+00 7.9694284654084875e+00 7.1506444249950283e+00 0 0 0
117 1 2 -4.4477564441213718e-01 5.2590776381308206e+00 8.9333310169197908e+00 5.9298724778044507e+00 0 0 0
118 1 3 3.9478353087615775e-01 6.2390021826851578e+00 8.8153831842319601e+00 6.3043107462560899e+00 0 0 0
119 1 3 3.7146388690660587e-01 4.8164365229739365e+00 9.3772513239250301e+00 5.0734572186255864e+00 0 0 0
120 1 1 3.0171431017008754e-02 4.7877083286162385e+00 7.4923684772792454e+00 7.8677377866009417e+00 0 0 0
121 1 2 2.6063227401055666e-01 3.8138071719185671e+00 6.9194455351506976e+00 8.8923322032863226e+00 0 0 0
122 1 4 -3.4395396743865980e-01 4.1827292448465521e+00 7.0423500106294243e+00 1.0102585611379247e+01 0 0 0
123 1 4 -3.4280961818375943e-01 2.7805427664622986e+00 6.2786431672864662e+00 8.4943351631719750e+00 0 0 0
124 1 2 2.5513862180395525e-01 6.2013548525695397e+00 7.2463328943867635e+00 8.0877293871361999e+00 0 0 0
125 1 4 -3.4110782064600648e-01 6.4934299753401410e+00 6.3757497707247497e+00 8.9819280243393038e+00 0 0 0
126 1 4 -4.0229769288937356e-01 7.0986191864168751e+00 7.8887876356433875e+00 7.3583164359621405e+00 0 0 0
127 1 1 2.6941340862702912e-01 4.8958508521584161e+00 1.1633510670568425e+01 1.1168244631986102e+01 0 0 0
128 1 2 -3.9749112946529153e-01 6.3288246731899118e+00 1.1645474517736957e+01 1.1363615074031381e+01 0 0 0
129 1 3 3.5642882881421584e-01 6.4542043263983970e+00 1.2474368629765049e+01 1.2112179681351792e+01 0 0 0
130 1 3 3.8569914360146534e-01 6.8466783670917151e+00 1.1492367056662205e+01 1.0458194555498265e+01 0 0 0
131 1 2 -4.2164721261871368e-01 3.9915441461620689e+00 1.2162802984315583e+01 1.2099026607735334e+01 0 0 0
132 1 3 3.9110694507745569e-01 3.0289287616307661e+00 1.2196373439941597e+01 1.1642987809691316e+01 0 0 0
133 1 3 3.8492515403127714e-01 4.4141019979344147e+00 1.2506928064897744e+01 1.3026964627206725e+01 0 0 0
134 1 1 3.7731215416855889e-02 4.4508396338418024e+00 1.1069427708253397e+01 9.9568770438472676e+00 0 0 0
135 1 2 2.5345697827501373e-01 5.3704711454596605e+00 1.0537588378593503e+01 8.9141134098225159e+00 0 0 0
136 1 4 -3.6668029428520349e-01 5.0221502128276292e+00 1.0743466704582438e+01 7.6739860082703872e+00 0 0 0
137 1 4 -3.4487234709677023e-01 6.4660294645107497e+00 9.9414577759580638e+00 9.2397637986690988e+00 0 0 0
138 1 2 2.7220424116053954e-01 2.9770126068881835e+00 1.0773799950213219e+01 9.7302335109606588e+00 0 0 0
139 1 4 -3.8566612390507643e-01 2.7137426158354598e+00 9.9801929621239953e+00 8.7593274407338342e+00 0 0 0
140 1 4 -3.8135345868167703e-01 2.0896854904965458e+00 1.1446471280149204e+01 1.0370105880214638e+01 0 0 0
141 1 1 2.7330338103968616e-01 1.7769991518919086e+00 1.2154242709528070e+01 6.4134134208985731e+00 0 0 0
142 1 2 -4.3591859306294078e-01 3.2111816206761121e+00 1.2078325673147745e+01 6.6480988020863849e+00 0 0 0
143 1 3 3.6438408310824022e-01 3.3252616275697804e+00 1.1285022307359741e+01 7.3705660841548042e+00 0 0 0
144 1 3 3.7906731558588136e-01 3.7334970256160895e+00 1.2468987795340510e+01 5.8572541403349794e+00 0 0 0
145 1 2 -3.9411083133692748e-01 8.4300084228111227e-01 1.1640802919859109e+01 7.3046303936199122e+00 0 0 0
146 1 3 3.7841815671653239e-01 -1.6945402785775479e-01 1.1860420737994556e+01 6.8303546405872781e+00 0 0 0
147 1 3 3.7001639043909962e-01 1.3477611969291807e+00 1.1260688613794645e+01 8.1834980998629181e+00 0 0 0
148 1 1 2.7945360732828942e-02 1.3781464871839288e+00 1.2801916673901532e+01 5.2181113729695312e+00 0 0 0
149 1 2 2.7815199200577068e-01 2.3904220486313519e+00 1.3110381216793584e+01 4.1114884094093576e+00 0 0 0
150 1 4 -3.5750459414496166e-01 2.0808571466022037e+00 1.2952386784752159e+01 2.8945704850066445e+00 0 0 0
151 1 4 -3.3469422175540819e-01 3.4381833539704960e+00 -4.5742950694122986e-02 4.4474934211038182e+00 0 1 0
152 1 2 2.7306093569398598e-01 1.3405575426358650e+01 1.3180126402720509e+01 4.9722830384792793e+00 -1 0 0
153 1 4 -3.5003560473154860e-01 1.3122280053605770e+01 2.4419656846127608e-01 4.0019167248289538e+00 0 1 0
154 1 4 -4.0287906740199253e-01 1.2461809577550733e+01 1.2767204328170294e+01 5.7584135078906957e+00 0 0 0
155 1 1 2.9075942689446926e-01 1.4124711663208540e+00 8.7135569871998833e+00 2.0975396529694317e+00 0 0 0
156 1 2 -4.4983338821324503e-01 1.3501641441751945e+01 8.3874654446374119e+00 1.7259622343566645e+00 0 0 0
157 1 3 3.5478019321792642e-01 1.1816175217830166e+01 7.7916263150008689e+00 2.0204200487963003e+01 0 0 0
158 1 3 3.8565587046238814e-01 1.2846155327753880e+01 8.3896425156763659e+00 2.4869849825044734e+00 0 0 0
159 1 2 -4.2223910724560693e-01 7.2742317592703332e-01 8.3297843135930680e+00 2.0542959739193694e+01 0 0 0
160 1 3 3.8255720552413230e-01 1.7348493698249383e+00 8.5443593807349600e+00 2.0906546520838599e+01 0 0 0
161 1 3 3.5757896437951647e-01 3.1295784074793698e-01 7.9568917374397099e+00 1.9623164857407758e+01 0 0 0
162 1 1 3.6017538694896503e-02 1.8366005335604767e+00 9.4497882719111441e+00 3.2206599313193527e+00 0 0 0
163 1 2 2.5660433425237816e-01 7.9709328046287042e-01 9.9823163914236233e+00 4.1741975394455491e+00 0 0 0
164 1 4 -3.5787676320863404e-01 1.0200903307955136e+00 9.7707082879814475e+00 5.4320656383273622e+00 0 0 0
165 1 4 -3.0602973449094212e-01 1.3121447337921294e+01 1.0437553260779991e+01 3.7294409660118939e+00 0 0 0
166 1 2 2.4552605043900200e-01 3.2563438612121045e+00 9.8032478179477014e+00 3.5948349522916825e+00 0 0 0
167 1 4 -3.9333555707687062e-01 3.3663865111083764e+00 1.0588901673258212e+01 4.5893387665998313e+00 0 0 0
168 1 4 -4.1286156331580881e-01 4.2145371423792959e+00 9.3224160187129943e+00 2.8748169698582435e+00 0 0 0
169 1 1 2.8382503913839968e-01 1.1072351665234358e+01 8.2175597405855250e+00 6.9452735671990924e+00 0 0 0
170 1 2 -4.2710728298720957e-01 9.6803008785507672e+00 8.4959653833776105e+00 6.7131641758272291e+00 0 0 0
171 1 3 3.4356967326757026e-01 9.4250019152589246e+00 8.6434432162969728e+00 5.7015560122217135e+00 0 0 0
172 1 3 3.8411824628864544e-01 8.9681103384171870e+00 8.1722903191873257e+00 7.4674200589355628e+00 0 0 0
173 1 2 -4.2882629323557886e-01 1.1990451187709898e+01 8.5797550391577140e+00 5.9423857196623162e+00 0 0 0
174 1 3 3.8339953144903277e-01 1.2908693892492526e+01 8.7148730956033873e+00 6.4597293665938240e+00 0 0 0
175 1 3 3.6787561327322871e-01 1.1530356815682053e+01 9.0509965443823024e+00 5.1185338836340861e+00 0 0 0
176 1 1 3.4344841857934502e-02 1.1532563144999143e+01 7.5271110844793352e+00 8.0628709524032587e+00 0 0 0
177 1 2 2.6780091863008815e-01 1.0475770266764510e+01 6.9928106787961566e+00 9.0680635283568201e+00 0 0 0
178 1 4 -3.7629789220916898e-01 1.0884750351990027e+01 6.9400660813050932e+00 1.0276532165025980e+01 0 0 0
179 1 4 -3.7769880321288640e-01 9.3830491770566002e+00 6.5289181725090737e+00 8.6058828330057260e+00 0 0 0
180 1 2 2.2799637322163829e-01 1.2965946894955394e+01 7.2234019463203794e+00 8.2378673520964458e+00 0 0 0
181 1 4 -3.3207915913951175e-01 -2.8383120734978573e-01 6.2435471252734169e+00 9.0588356811178343e+00 0 0 0
182 1 4 -3.9383453375798061e-01 4.7202159226574314e-01 7.7920987202287613e+00 7.5531626001145007e+00 0 0 0
183 1 1 3.0893482575689346e-01 1.1582638949173758e+01 1.1705140468747748e+01 1.1194057757940342e+01 0 0 0
184 1 2 -4.2486601828203074e-01 -4.7624681549295411e-01 1.1905172669721924e+01 1.1372065382621955e+01 0 0 0
185 1 3 3.6879832025416337e-01 -3.1733516227730479e-01 1.2505676814473039e+01 1.2262327738662869e+01 0 0 0
186 1 3 3.8743243043252057e-01 1.7214239018257749e-01 1.1554255923882170e+01 1.0608645033139204e+01 0 0 0
187 1 2 -4.3431093088277928e-01 1.0629849354218690e+01 1.2349974460677489e+01 1.2005347905207273e+01 0 0 0
188 1 3 3.8477926351302044e-01 9.6655255118561811e+00 1.2099728411183467e+01 1.1619010796501634e+01 0 0 0
189 1 3 3.7473403264436911e-01 1.0904699032818685e+01 1.3035184735016019e+01 1.2747034189571796e+01 0 0 0
190 1 1 3.5704298155361393e-02 1.1156744068711740e+01 1.0936726162544398e+01 1.0040980049516348e+01 0 0 0
191 1 2 2.7070270942032426e-01 1.2153376072894712e+01 1.0520465775786519e+01 9.0313615066975146e+00 0 0 0
192 1 4 -3.9301604789434225e-01 1.1868179419226728e+01 1.0600845779226677e+01 7.7564573374571779e+00 0 0 0
193 1 4 -3.5893586283014378e-01 -2.7007964163150927e-01 9.9143562379757029e+00 9.5134301758628297e+00 0 0 0
194 1 2 2.6421218027138982e-01 9.7204218887951619e+00 1.0746718733377186e+01 9.6972922120811749e+00 0 0 0
195 1 4 -3.5869476657382698e-01 9.4722271958136588e+00 9.8814266202451009e+00 8.7974504453459694e+00 0 0 0
196 1 4 -3.7862137598218620e-01 8.7691978700494797e+00 1.1253770306303490e+01 1.0420115551773208e+01 0 0 0
197 1 1 3.0429369650572152e-01 8.6869304111373733e+00 1.2068552111075896e+01 6.2886006838198423e+00 0 0 0
198 1 2 -4.2511343001259039e-01 1.0044090292923464e+01 1.1788558820753789e+01 6.5981309865230982e+00 0 0 0
199 1 3 3.7720101908917353e-01 1.0328765094370224e+01 1.1376137331194425e+01 7.5218496788154265e+00 0 0 0
200 1 3 3.7654418103375875e-01 1.0646897352689402e+01 1.2003950227755439e+01 5.7053940745436194e+00 0 0 0
201 1 2 -4.2742312311879888e-01 7.7113249682845311e+00 1.1696011182969096e+01 7.2283648266205969e+00 0 0 0
202 1 3 3.7750154684109111e-01 6.6829230524795005e+00 1.1757962597233909e+01 6.7986898033672016e+00 0 0 0
203 1 3 3.7446147500553251e-01 8.0867272160437604e+00 1.1238390721778149e+01 8.0713198256884713e+00 0 0 0
204 1 1 3.5678722843359205e-02 8.2815850429397191e+00 1.2709796956810690e+01 5.1010059861235320e+00 0 0 0
205 1 2 2.6335643415443794e-01 9.3548857259348548e+00 1.3185866633058431e+01 4.1558330621407382e+00 0 0 0
206 1 4 -3.9974874326554666e-01 9.1917770255453188e+00 1.2976059002669686e+01 2.9154570185281754e+00 0 0 0
207 1 4 -3.1003926610791455e-01 1.0294775061629069e+01 8.9487495602879441e-02 4.6580511402813780e+00 0 1 0
208 1 2 2.4952787962831527e-01 6.8545864306500324e+00 1.3067147692032506e+01 4.8453574726683470e+00 0 0 0
209 1 4 -3.6704096041037271e-01 6.6202073364816236e+00 7.3548050995178582e-02 3.8001978337827333e+00 0 1 0
210 1 4 -3.8708011406047349e-01 5.8929439598131106e+00 1.2678033126326811e+01 5.6447572500065206e+00 0 0 0
211 1 1 2.8196273195953192e-01 8.1592715203742738e+00 8.6513743059572441e+00 2.0221100635534541e+00 0 0 0
212 1 2 -4.5687410263858558e-01 6.7740849839398622e+00 8.3797913069798167e+00 1.9256272143623727e+00 0 0 0
213 1 3 3.6196021053988270e-01 4.9040247780048887e+00 7.7047793568305680e+00 2.0488158943028495e+01 0 0 0
214 1 3 3.8304004756634885e-01 6.1883946100340124e+00 8.7927799216837048e+00 2.6204954450957358e+00 0 0 0
215 1 2 -4.0847247244126694e-01 7.3236146313198800e+00 8.1068204879700456e+00 2.0338781875336128e+01 0 0 0
216 1 3 3.6845959403184109e-01 8.2635048154298154e+00 8.5887533371047482e+00 2.0524538391097167e+01 0 0 0
217 1 3 3.7878910083910367e-01 6.8629742026322376e+00 7.9783580475457168e+00 1.9449205355143551e+01 0 0 0
218 1 1 2.9028467904082512e-02 8.5683655621418549e+00 9.4697303679653526e+00 3.0835239051310377e+00 0 0 0
219 1 2 2.7260990809339736e-01 7.5294333128204860e+00 9.9939732470515121e+00 4.0942300709566926e+00 0 0 0
220 1 4 -3.7375237667764716e-01 7.8248940299009098e+00 9.7262351832726957e+00 5.3180420854292034e+00 0 0 0
221 1 4 -3.6755180770421364e-01 6.4188740094842665e+00 1.0468139123257702e+01 3.7167906759887863e+00 0 0 0
222 1 2 2.7109934885787856e-01 1.0027207280103285e+01 9.6867404244364099e+00 3.3103797210446348e+00 0 0 0
223 1 4 -3.5984203538707005e-01 1.0343750215172330e+01 1.0398941500968993e+01 4.3487251660607997e+00 0 0 0
224 1 4 -3.8287926918740456e-01 1.0888733110199395e+01 9.1633200067008680e+00 2.5164722877111543e+00 0 0 0
225 1 1 2.8558994010949573e-01 3.5326653422887699e+00 1.2165714560926637e+00 1.6393875915728696e+01 0 0 0
226 1 2 -4.1765351270631901e-01 2.1554566806431903e+00 1.4855092528723397e+00 1.6351877751147867e+01 0 0 0
227 1 3 3.5449894757177408e-01 2.0028501855014724e+00 2.0789694623926591e+00 1.5405166191643728e+01 0 0 0
228 1 3 3.7511853631391545e-01 1.7197006931213312e+00 1.2226768883931698e+00 1.7276173656710217e+01 0 0 0
229 1 2 -4.4099213103036261e-01 4.4071683300340085e+00 1.5004771226103490e+00 1.5349137525413839e+01 0 0 0
230 1 3 3.8248575740768354e-01 5.4241662639293526e+00 1.3772722248443485e+00 1.5620594710536233e+01 0 0 0
231 1 3 3.6792010046957307e-01 4.0248059000698646e+00 1.9867444923943323e+00 1.4553912675409071e+01 0 0 0
232 1 1 3.5186981595348013e-02 3.9965758359265768e+00 4.2715221272707493e-01 1.7500918014624361e+01 0 0 0
233 1 2 2.2485815411651983e-01 3.0677861706903631e+00 -1.1905037351528770e-01 1.8508949966555001e+01 0 0 0
234 1 4 -3.3544078283125195e-01 3.2583568123303963e+00 3.6909741647625149e-01 1.9699631116028499e+01 0 0 0
235 1 4 -3.0829549883951973e-01 2.0277023429650116e+00 1.3053604518072687e+01 1.8136197624483163e+01 0 -1 0
236 1 2 2.7579277878553093e-01 5.4583718047706906e+00 1.2379954422569067e-01 1.7708363758634540e+01 0 0 0
237 1 4 -4.1035998126335294e-01 5.8144083289448414e+00 1.3233393262921695e+01 1.8758968682882667e+01 0 -1 0
238 1 4 -4.0063144991276234e-01 6.3431600227725076e+00 5.0396683947881249e-01 1.6829333491596785e+01 0 0 0
239 1 1 3.0112059722392748e-01 3.9369679081408355e+00 4.6689031025796304e+00 2.0604376461339971e+01 0 0 0
240 1 2 -4.4207183839663117e-01 5.3165453712440716e+00 4.8670219632849001e+00 2.0732052606738637e+01 0 0 0
241 1 3 3.6452222556817759e-01 7.2844208267360067e+00 5.3147051737456774e+00 2.4092119530278695e+00 0 0 0
242 1 3 3.8387536419020840e-01 5.8490482190036843e+00 4.6730223784046618e+00 1.9883738617397906e+01 0 0 0
243 1 2 -4.1712084896616064e-01 4.7405868976183108e+00 5.0471295693081197e+00 2.3245595910687813e+00 0 0 0
244 1 3 3.9180441214432921e-01 3.7318963965731795e+00 5.2215352145351561e+00 1.9045580470527463e+00 0 0 0
245 1 3 3.6867194052594371e-01 5.2371483147274018e+00 5.5322973782238511e+00 3.0564545332098234e+00 0 0 0
246 1 1 3.3903589353339987e-02 3.4842595345857212e+00 4.0463629198679048e+00 1.9392232828868931e+01 0 0 0
247 1 2 2.3428913439121279e-01 4.4301690678123986e+00 3.5678572177726924e+00 1.8335609553356935e+01 0 0 0
248 1 4 -3.5821706981228796e-01 4.2150726424961995e+00 3.9069132702317919e+00 1.7124720049343171e+01 0 0 0
249 1 4 -2.9670990550197418e-01 5.4898823228542337e+00 2.8907360039243759e+00 1.8623578096096946e+01 0 0 0
250 1 2 2.4389664920201898e-01 2.0179337940877344e+00 3.8424933928440721e+00 1.9189990517709987e+01 0 0 0
251 1 4 -3.5770704483035154e-01 1.6079186502348095e+00 3.0570090164526520e+00 1.8260244215595772e+01 0 0 0
252 1 4 -3.6506651876048274e-01 1.1998600436288029e+00 4.4445909017630729e+00 1.9956569562444969e+01 0 0 0
253 1 1 2.7475859193149338e-01 1.0603231704174063e+00 5.3352989617195670e+00 1.5931315855996353e+01 0 0 0
254 1 2 -4.5688679018589534e-01 2.4520762022905083e+00 5.2933312427509982e+00 1.6189218770958753e+01 0 0 0
255 1 3 3.7308829322329623e-01 2.6708168847953742e+00 4.6049339804818956e+00 1.6915935601165522e+01 0 0 0
256 1 3 3.7058968462423392e-01 2.9818265473211349e+00 5.7912281456846220e+00 1.5462432694943427e+01 0 0 0
257 1 2 -4.1280931436305018e-01 8.6418205339830356e-02 4.8061969946463625e+00 1.6819712505071351e+01 0 0 0
258 1 3 3.8694471954920306e-01 -9.0451320047183292e-01 4.9679719747897124e+00 1.6422749546085470e+01 0 0 0
259 1 3 3.7715159722894959e-01 5.1988560915715420e-01 4.7818475123439335e+00 1.7766422110037215e+01 0 0 0
260 1 1 2.4280924593696671e-02 5.8495960268429870e-01 6.0477999192172218e+00 1.4794463652996619e+01 0 0 0
261 1 2 2.5177767499782328e-01 1.4996567971702135e+00 6.4636731063926973e+00 1.3698395748693939e+01 0 0 0
262 1 4 -3.4410839117550096e-01 1.2068132061902213e+00 6.0689208739946157e+00 1.2502516261422354e+01 0 0 0
263 1 4 -3.4890663696660312e-01 2.5806615891762918e+00 7.1245530322673103e+00 1.3929526243370919e+01 0 0 0
264 1 2 2.7054193705852553e-01 1.2544122363694617e+01 6.1630731439475177e+00 1.4449447982777377e+01 -1 0 0
265 1 4 -3.5869927786662081e-01 1.2257048438236117e+01 6.7771122324313708e+00 1.3377000402070720e+01 0 0 0
266 1 4 -4.0868165264934808e-01 1.1602528358610291e+01 5.8490910137611962e+00 1.5295321760587560e+01 0 0 0
267 1 1 2.7858042474188671e-01 5.9009465979564546e-01 1.8007573519470861e+00 1.1755461765443711e+01 0 0 0
268 1 2 -4.4923602281573544e-01 1.2631724307439372e+01 1.6820653784981296e+00 1.1598447605492300e+01 0 0 0
269 1 3 3.5552676625693125e-01 1.2267257112841303e+01 1.4094052645986244e+00 1.0616209100161138e+01 0 0 0
270 1 3 3.8612659692668377e-01 1.2161640716742870e+01 1.9416197091940757e+00 1.2482200774334038e+01 0 0 0
271 1 2 -3.9484231369587253e-01 1.4278216675086908e+00 1.2363960275412742e+00 1.0812012563039385e+01 0 0 0
272 1 3 3.8203689388212664e-01 2.4679549522015032e+00 1.4735073737740649e+00 1.1102330127317311e+01 0 0 0
273 1 3 3.6289979463450261e-01 7.7466083449767220e-01 9.3754904320861354e-01 9.9783626467616635e+00 0 0 0
274 1 1 3.9530183861806442e-02 1.0640059608279469e+00 2.4848730730053998e+00 1.2935967762315352e+01 0 0 0
275 1 2 2.5930958679777955e-01 8.8520653482281331e-02 2.9716310767991212e+00 1.3949014604401718e+01 0 0 0
276 1 4 -3.6790541915389557e-01 4.0753764084739230e-01 2.7724040380427457e+00 1.5190232467495649e+01 0 0 0
277 1 4 -4.0073740896575577e-01 1.2535255727919788e+01 3.6471553016503950e+00 1.3449928390743834e+01 0 0 0
278 1 2 2.2227916984533216e-01 2.5094199629258904e+00 2.7242666641178395e+00 1.3205150369031779e+01 0 0 0