ITEM: TIMESTEP
0
ITEM: NUMBER OF ATOMS
448
ITEM: BOX BOUNDS xy xz yz pp pp pp
-2.4186686450000000e-01 1.3879200000000001e+01 8.1284706647000001e-16
0.0000000000000000e+00 1.3274800000000003e+01 -2.4186686450000000e-01
0.0000000000000000e+00 2.2679910358299999e+01 1.4036330231000001e-15
ITEM: ATOMS id type xs ys zs
1 1 0.343434 0.12071 0.263591
2 2 0.244121 0.126 0.255802
3 3 0.220211 0.153943 0.214716
4 3 0.200895 0.0975297 0.289465
5 2 0.402899 0.15072 0.218568
6 3 0.481058 0.146009 0.228959
7 3 0.367784 0.174692 0.179593
8 1 0.382943 0.0861914 0.318085
9 2 0.318585 0.0641535 0.369697
10 4 0.350436 0.0824015 0.422383
11 4 0.233375 0.0291359 0.357574
12 2 0.487984 0.0731655 0.327965
13 4 0.516045 0.0307914 0.377049
14 4 0.544688 0.104559 0.286308
15 1 0.406566 0.37071 0.486409
16 2 0.505879 0.376 0.494198
17 3 0.529789 0.403943 0.535284
18 3 0.549105 0.34753 0.460535
19 2 0.347101 0.40072 0.531432
20 3 0.268942 0.396009 0.521041
21 3 0.382216 0.424692 0.570407
22 1 0.367056 0.336191 0.431915
23 2 0.431414 0.314153 0.380303
24 4 0.399564 0.332402 0.327617
25 4 0.516625 0.279136 0.392426
26 2 0.262016 0.323165 0.422035
27 4 0.233955 0.280791 0.372952
28 4 0.205312 0.354559 0.463692
29 1 0.156567 0.37929 0.236409
30 2 0.255878 0.374 0.244198
31 3 0.279789 0.346057 0.285284
32 3 0.299105 0.40247 0.210534
33 2 0.0971015 0.34928 0.281432
34 3 0.018942 0.353991 0.271041
35 3 0.132216 0.325308 0.320407
36 1 0.117057 0.413808 0.181916
37 2 0.181414 0.435847 0.130304
38 4 0.14956 0.417599 0.077619
39 4 0.266624 0.470865 0.142427
40 2 0.0120154 0.426835 0.172035
41 4 0.983955 0.469209 0.122951
42 4 0.955312 0.395441 0.213692
43 1 0.0934337 0.12929 0.0135915
44 2 0.994122 0.124 0.00580204
45 3 0.970211 0.0960572 0.964716
46 3 0.950895 0.15247 0.0394654
47 2 0.152898 0.0992803 0.968568
48 3 0.231058 0.103991 0.97896
49 3 0.117784 0.0753077 0.929593
50 1 0.132943 0.163808 0.0680845
51 2 0.0685855 0.185847 0.119697
52 4 0.100436 0.167598 0.172383
53 4 0.983375 0.220864 0.107574
54 2 0.237984 0.176834 0.0779653
55 4 0.266045 0.219209 0.127049
56 4 0.294688 0.145442 0.0363079
57 1 0.843434 0.12071 0.263592
58 2 0.744122 0.126 0.255802
59 3 0.720211 0.153943 0.214716
60 3 0.700895 0.0975297 0.289465
61 2 0.902898 0.15072 0.218568
62 3 0.981058 0.146009 0.228959
63 3 0.867784 0.174692 0.179593
64 1 0.882943 0.0861916 0.318084
65 2 0.818585 0.0641535 0.369697
66 4 0.850436 0.0824015 0.422383
67 4 0.733376 0.0291359 0.357574
68 2 0.987984 0.0731655 0.327965
69 4 0.016045 0.0307913 0.377049
70 4 0.044688 0.104559 0.286308
71 1 0.906566 0.37071 0.486409
72 2 0.00587841 0.376 0.494198
73 3 0.0297887 0.403943 0.535284
74 3 0.0491053 0.34753 0.460535
75 2 0.847102 0.40072 0.531432
76 3 0.768942 0.396009 0.521041
77 3 0.882216 0.424692 0.570407
78 1 0.867057 0.336192 0.431915
79 2 0.931415 0.314153 0.380303
80 4 0.899564 0.332402 0.327617
81 4 0.0166246 0.279136 0.392426
82 2 0.762016 0.323165 0.422035
83 4 0.733955 0.280791 0.372951
84 4 0.705312 0.354559 0.463692
85 1 0.656566 0.37929 0.236409
86 2 0.755878 0.374 0.244198
87 3 0.779789 0.346057 0.285284
88 3 0.799105 0.40247 0.210535
89 2 0.597102 0.34928 0.281432
90 3 0.518942 0.353991 0.27104
91 3 0.632216 0.325308 0.320407
92 1 0.617057 0.413809 0.181916
93 2 0.681415 0.435846 0.130305
94 4 0.649568 0.4176 0.0776168
95 4 0.766625 0.470864 0.142427
96 2 0.512017 0.426834 0.172036
97 4 0.483957 0.46921 0.12295
98 4 0.455313 0.395441 0.213692
99 1 0.593434 0.12929 0.0135915
100 2 0.494121 0.123999 0.00580206
101 3 0.470211 0.0960574 0.964716
102 3 0.450895 0.15247 0.0394655
103 2 0.652899 0.0992804 0.968568
104 3 0.731058 0.103991 0.97896
105 3 0.617784 0.0753075 0.929593
106 1 0.632943 0.163809 0.0680848
107 2 0.568585 0.185847 0.119697
108 4 0.600436 0.167599 0.172382
109 4 0.483376 0.220864 0.107574
110 2 0.737984 0.176835 0.0779653
111 4 0.766045 0.219209 0.127048
112 4 0.794688 0.145441 0.036308
113 1 0.343434 0.62071 0.263591
114 2 0.244121 0.626 0.255802
115 3 0.220211 0.653943 0.214716
116 3 0.200895 0.59753 0.289465
117 2 0.402899 0.65072 0.218568
118 3 0.481058 0.646009 0.228959
119 3 0.367784 0.674692 0.179593
120 1 0.382944 0.586191 0.318085
121 2 0.318585 0.564153 0.369697
122 4 0.350436 0.582402 0.422383
123 4 0.233375 0.529136 0.357574
124 2 0.487984 0.573165 0.327965
125 4 0.516045 0.530791 0.377049
126 4 0.544688 0.604559 0.286308
127 1 0.406566 0.87071 0.486409
128 2 0.505879 0.876 0.494198
129 3 0.529789 0.903943 0.535284
130 3 0.549105 0.84753 0.460535
131 2 0.347101 0.90072 0.531432
132 3 0.268942 0.896009 0.521041
133 3 0.382216 0.924692 0.570407
134 1 0.367056 0.836191 0.431915
135 2 0.431414 0.814153 0.380303
136 4 0.399564 0.832402 0.327617
137 4 0.516625 0.779136 0.392426
138 2 0.262016 0.823165 0.422035
139 4 0.233955 0.780791 0.372952
140 4 0.205312 0.854559 0.463692
141 1 0.156567 0.87929 0.236409
142 2 0.255878 0.874 0.244198
143 3 0.279789 0.846057 0.285284
144 3 0.299105 0.90247 0.210534
145 2 0.0971016 0.84928 0.281432
146 3 0.018942 0.853991 0.271041
147 3 0.132216 0.825308 0.320407
148 1 0.117057 0.913808 0.181916
149 2 0.181414 0.935847 0.130304
150 4 0.14956 0.917599 0.077619
151 4 0.266624 0.970865 0.142427
152 2 0.0120154 0.926835 0.172035
153 4 0.983955 0.969209 0.122951
154 4 0.955312 0.895441 0.213692
155 1 0.0934337 0.62929 0.0135915
156 2 0.994122 0.624 0.00580203
157 3 0.970211 0.596057 0.964716
158 3 0.950895 0.65247 0.0394654
159 2 0.152898 0.59928 0.968568
160 3 0.231058 0.603991 0.97896
161 3 0.117784 0.575308 0.929593
162 1 0.132943 0.663808 0.0680846
163 2 0.0685855 0.685847 0.119697
164 4 0.100436 0.667598 0.172383
165 4 0.983375 0.720864 0.107574
166 2 0.237984 0.676834 0.0779653
167 4 0.266045 0.719208 0.127049
168 4 0.294688 0.645442 0.0363079
169 1 0.843434 0.62071 0.263592
170 2 0.744122 0.626 0.255802
171 3 0.720211 0.653943 0.214716
172 3 0.700895 0.59753 0.289465
173 2 0.902898 0.65072 0.218568
174 3 0.981058 0.646009 0.228959
175 3 0.867784 0.674692 0.179593
176 1 0.882943 0.586192 0.318084
177 2 0.818585 0.564153 0.369697
178 4 0.850436 0.582402 0.422383
179 4 0.733376 0.529136 0.357574
180 2 0.987984 0.573165 0.327965
181 4 0.016045 0.530791 0.377049
182 4 0.044688 0.604559 0.286308
183 1 0.906566 0.87071 0.486409
184 2 0.0058784 0.876 0.494198
185 3 0.0297887 0.903943 0.535284
186 3 0.0491053 0.84753 0.460535
187 2 0.847102 0.90072 0.531432
188 3 0.768942 0.896009 0.521041
189 3 0.882216 0.924692 0.570407
190 1 0.867057 0.836192 0.431915
191 2 0.931415 0.814153 0.380303
192 4 0.899564 0.832402 0.327617
193 4 0.0166245 0.779136 0.392426
194 2 0.762016 0.823165 0.422035
195 4 0.733955 0.780791 0.372951
196 4 0.705312 0.854559 0.463692
197 1 0.656566 0.87929 0.236409
198 2 0.755879 0.874 0.244198
199 3 0.779789 0.846057 0.285284
200 3 0.799105 0.90247 0.210535
201 2 0.597102 0.84928 0.281432
202 3 0.518942 0.853991 0.27104
203 3 0.632216 0.825308 0.320407
204 1 0.617057 0.913809 0.181916
205 2 0.681415 0.935846 0.130305
206 4 0.649568 0.9176 0.0776168
207 4 0.766625 0.970864 0.142427
208 2 0.512017 0.926834 0.172036
209 4 0.483957 0.96921 0.12295
210 4 0.455313 0.895441 0.213692
211 1 0.593434 0.62929 0.0135915
212 2 0.494121 0.623999 0.00580206
213 3 0.470211 0.596057 0.964716
214 3 0.450895 0.65247 0.0394655
215 2 0.652899 0.59928 0.968568
216 3 0.731058 0.603991 0.97896
217 3 0.617784 0.575307 0.929593
218 1 0.632943 0.663809 0.0680848
219 2 0.568585 0.685847 0.119697
220 4 0.600436 0.667599 0.172382
221 4 0.483376 0.720864 0.107574
222 2 0.737984 0.676835 0.0779653
223 4 0.766045 0.719209 0.127048
224 4 0.794688 0.645441 0.036308
225 1 0.343434 0.12071 0.763591
226 2 0.24412 0.126 0.755802
227 3 0.220211 0.153943 0.714716
228 3 0.200895 0.0975298 0.789465
229 2 0.402899 0.150721 0.718568
230 3 0.481058 0.146009 0.728959
231 3 0.367784 0.174692 0.679593
232 1 0.382944 0.0861909 0.818086
233 2 0.318585 0.0641533 0.869697
234 4 0.350436 0.0824 0.922383
235 4 0.233376 0.0291358 0.857574
236 2 0.487984 0.0731652 0.827965
237 4 0.516045 0.0307913 0.877048
238 4 0.544688 0.104559 0.786308
239 1 0.406575 0.370725 0.986456
240 2 0.505587 0.376007 0.994152
241 3 0.529864 0.403963 0.0353142
242 3 0.549199 0.347476 0.9605
243 2 0.34726 0.400614 0.0312865
244 3 0.268854 0.396031 0.0210651
245 3 0.382199 0.424722 0.0704584
246 1 0.367199 0.336262 0.932017
247 2 0.431634 0.314066 0.880113
248 4 0.399771 0.332291 0.827884
249 4 0.516152 0.279359 0.892364
250 2 0.261737 0.323133 0.921999
251 4 0.233985 0.28087 0.87303
252 4 0.20549 0.35449 0.963597
253 1 0.156566 0.37929 0.736408
254 2 0.255875 0.374001 0.744197
255 3 0.279802 0.346055 0.785291
256 3 0.299105 0.402471 0.710534
257 2 0.0971029 0.349282 0.78143
258 3 0.0189418 0.353991 0.77104
259 3 0.132231 0.3253 0.820416
260 1 0.117058 0.413807 0.681917
261 2 0.181414 0.435846 0.630304
262 4 0.149564 0.417598 0.577617
263 4 0.266626 0.470864 0.642426
264 2 0.012016 0.426834 0.672035
265 4 0.983955 0.469209 0.622951
266 4 0.955312 0.395441 0.713692
267 1 0.0934336 0.12929 0.513591
268 2 0.994121 0.124 0.505802
269 3 0.970211 0.0960572 0.464716
270 3 0.950895 0.15247 0.539465
271 2 0.152899 0.09928 0.468568
272 3 0.231058 0.103991 0.478959
273 3 0.117784 0.0753077 0.429593
274 1 0.132943 0.163809 0.568085
275 2 0.0685855 0.185847 0.619697
276 4 0.100436 0.167599 0.672383
277 4 0.983375 0.220864 0.607574
278 2 0.237984 0.176835 0.577965
279 4 0.266045 0.219209 0.627049
280 4 0.294688 0.145441 0.536308
281 1 0.843434 0.12071 0.763592
282 2 0.744121 0.126 0.755802
283 3 0.720211 0.153943 0.714716
284 3 0.700895 0.0975297 0.789465
285 2 0.902899 0.15072 0.718568
286 3 0.981058 0.146009 0.728959
287 3 0.867784 0.174692 0.679593
288 1 0.882943 0.0861914 0.818085
289 2 0.818585 0.0641535 0.869697
290 4 0.850436 0.0824015 0.922383
291 4 0.733375 0.0291358 0.857574
292 2 0.987984 0.0731654 0.827965
293 4 0.016045 0.0307913 0.877049
294 4 0.0446878 0.104559 0.786308
295 1 0.906566 0.37071 0.986409
296 2 0.00587805 0.376 0.994198
297 3 0.0297887 0.403943 0.0352842
298 3 0.0491068 0.34753 0.960535
299 2 0.847102 0.40072 0.0314316
300 3 0.768942 0.396009 0.0210407
301 3 0.882216 0.424692 0.0704067
302 1 0.867057 0.336192 0.931916
303 2 0.931415 0.314153 0.880303
304 4 0.899564 0.332402 0.827617
305 4 0.0166249 0.279136 0.892426
306 2 0.762017 0.323165 0.922034
307 4 0.733955 0.280791 0.872951
308 4 0.705315 0.354559 0.963692
309 1 0.656566 0.37929 0.736408
310 2 0.755877 0.374 0.744198
311 3 0.779789 0.346057 0.785284
312 3 0.799105 0.40247 0.710535
313 2 0.597102 0.34928 0.781431
314 3 0.518943 0.353991 0.771041
315 3 0.632216 0.325308 0.820406
316 1 0.617058 0.413808 0.681917
317 2 0.681414 0.435846 0.630304
318 4 0.649564 0.417598 0.577617
319 4 0.766625 0.470864 0.642426
320 2 0.512016 0.426835 0.672034
321 4 0.483955 0.469209 0.622951
322 4 0.455311 0.395442 0.713691
323 1 0.593434 0.12929 0.513592
324 2 0.494122 0.124 0.505802
325 3 0.470211 0.0960572 0.464716
326 3 0.450895 0.15247 0.539465
327 2 0.652898 0.0992801 0.468568
328 3 0.731058 0.103991 0.478959
329 3 0.617784 0.0753077 0.429593
330 1 0.632943 0.163808 0.568084
331 2 0.568585 0.185847 0.619697
332 4 0.600436 0.167598 0.672383
333 4 0.483375 0.220864 0.607574
334 2 0.737984 0.176835 0.577965
335 4 0.766045 0.219209 0.627049
336 4 0.794688 0.145441 0.536308
337 1 0.343434 0.62071 0.763591
338 2 0.24412 0.626 0.755802
339 3 0.220211 0.653943 0.714716
340 3 0.200895 0.59753 0.789465
341 2 0.402899 0.65072 0.718568
342 3 0.481058 0.646009 0.728959
343 3 0.367784 0.674692 0.679593
344 1 0.382944 0.586191 0.818086
345 2 0.318585 0.564153 0.869697
346 4 0.350436 0.5824 0.922383
347 4 0.233376 0.529136 0.857574
348 2 0.487984 0.573165 0.827965
349 4 0.516045 0.530791 0.877048
350 4 0.544688 0.604559 0.786308
351 1 0.406575 0.870725 0.986456
352 2 0.505587 0.876007 0.994152
353 3 0.529864 0.903963 0.0353142
354 3 0.549199 0.847476 0.9605
355 2 0.34726 0.900614 0.0312865
356 3 0.268854 0.896031 0.0210651
357 3 0.382199 0.924722 0.0704584
358 1 0.367199 0.836262 0.932017
359 2 0.431634 0.814066 0.880113
360 4 0.399771 0.832291 0.827884
361 4 0.516152 0.779359 0.892364
362 2 0.261737 0.823133 0.921999
363 4 0.233985 0.78087 0.87303
364 4 0.20549 0.85449 0.963597
365 1 0.156566 0.87929 0.736408
366 2 0.255875 0.874001 0.744197
367 3 0.279802 0.846055 0.785291
368 3 0.299105 0.902471 0.710534
369 2 0.0971029 0.849282 0.78143
370 3 0.0189418 0.853991 0.77104
371 3 0.132231 0.8253 0.820416
372 1 0.117059 0.913807 0.681917
373 2 0.181414 0.935846 0.630304
374 4 0.149564 0.917598 0.577617
375 4 0.266626 0.970864 0.642426
376 2 0.012016 0.926834 0.672035
377 4 0.983955 0.969209 0.622951
378 4 0.955311 0.895441 0.713692
379 1 0.0934336 0.62929 0.513591
380 2 0.994121 0.624 0.505802
381 3 0.970211 0.596057 0.464716
382 3 0.950895 0.65247 0.539465
383 2 0.152899 0.59928 0.468568
384 3 0.231058 0.603991 0.478959
385 3 0.117784 0.575308 0.429593
386 1 0.132943 0.663809 0.568085
387 2 0.0685855 0.685847 0.619697
388 4 0.100436 0.667599 0.672383
389 4 0.983375 0.720864 0.607574
390 2 0.237984 0.676835 0.577965
391 4 0.266045 0.719209 0.627049
392 4 0.294688 0.645441 0.536308
393 1 0.843434 0.62071 0.763591
394 2 0.744121 0.626 0.755802
395 3 0.720211 0.653943 0.714716
396 3 0.700895 0.59753 0.789465
397 2 0.902899 0.65072 0.718568
398 3 0.981058 0.646009 0.728959
399 3 0.867784 0.674692 0.679593
400 1 0.882944 0.586191 0.818085
401 2 0.818585 0.564153 0.869697
402 4 0.850436 0.582402 0.922383
403 4 0.733375 0.529136 0.857574
404 2 0.987984 0.573165 0.827965
405 4 0.0160449 0.530791 0.877048
406 4 0.0446878 0.604559 0.786308
407 1 0.906566 0.87071 0.986409
408 2 0.00587813 0.876 0.994198
409 3 0.0297887 0.903943 0.0352842
410 3 0.0491068 0.84753 0.960535
411 2 0.847102 0.90072 0.0314317
412 3 0.768942 0.896009 0.0210407
413 3 0.882216 0.924692 0.0704067
414 1 0.867057 0.836192 0.931916
415 2 0.931415 0.814153 0.880303
416 4 0.899564 0.832402 0.827617
417 4 0.0166249 0.779136 0.892426
418 2 0.762017 0.823165 0.922034
419 4 0.733955 0.780791 0.872951
420 4 0.705315 0.854559 0.963692
421 1 0.656566 0.87929 0.736408
422 2 0.755877 0.874 0.744198
423 3 0.779789 0.846057 0.785284
424 3 0.799105 0.90247 0.710535
425 2 0.597102 0.84928 0.781431
426 3 0.518943 0.853991 0.771041
427 3 0.632216 0.825308 0.820406
428 1 0.617058 0.913808 0.681916
429 2 0.681414 0.935846 0.630304
430 4 0.649564 0.917598 0.577617
431 4 0.766625 0.970864 0.642426
432 2 0.512016 0.926835 0.672034
433 4 0.483955 0.969209 0.622951
434 4 0.455311 0.895442 0.713691
435 1 0.593434 0.62929 0.513591
436 2 0.494122 0.624 0.505802
437 3 0.470211 0.596057 0.464716
438 3 0.450895 0.65247 0.539465
439 2 0.652898 0.59928 0.468568
440 3 0.731058 0.603991 0.478959
441 3 0.617784 0.575308 0.429593
442 1 0.632943 0.663808 0.568085
443 2 0.568585 0.685847 0.619697
444 4 0.600436 0.667598 0.672383
445 4 0.483375 0.720864 0.607574
446 2 0.737984 0.676835 0.577965
447 4 0.766045 0.719209 0.627049
448 4 0.794688 0.645441 0.536308
ITEM: TIMESTEP
1000
ITEM: NUMBER OF ATOMS
448
ITEM: BOX BOUNDS xy xz yz pp pp pp
-1.8670651483121630e+00 1.3918068366985828e+01 -5.9823388903886979e-03
4.7851354360175052e-01 1.2699116511536934e+01 -1.8222144424359850e+00
6.7234978704300197e-01 2.2007560571256938e+01 -9.7169944861275670e-02
ITEM: ATOMS id type xs ys zs
1 1 0.357201 0.123351 0.243606
2 2 0.260014 0.128922 0.230818
3 3 0.224997 0.173675 0.182495
4 3 0.212096 0.0895484 0.265762
5 2 0.418964 0.157138 0.200782
6 3 0.50274 0.144152 0.216976
7 3 0.389229 0.192962 0.146755
8 1 0.394747 0.0774879 0.303306
9 2 0.323673 0.0501766 0.357301
10 4 0.355511 0.0436053 0.413784
11 4 0.233105 0.0548971 0.340025
12 2 0.490757 0.0641396 0.318548
13 4 0.525456 0.0245671 0.37791
14 4 0.552089 0.100407 0.280523
15 1 0.403767 0.352207 0.502414
16 2 0.499972 0.339319 0.514931
17 3 0.53399 0.376565 0.565169
18 3 0.546352 0.294857 0.47275
19 2 0.344477 0.39422 0.540458
20 3 0.254419 0.409563 0.520405
21 3 0.384214 0.428136 0.592868
22 1 0.358363 0.31784 0.43844
23 2 0.419778 0.291516 0.390034
24 4 0.389751 0.302825 0.329434
25 4 0.512626 0.26455 0.40426
26 2 0.254896 0.314286 0.424563
27 4 0.216626 0.265634 0.371437
28 4 0.198634 0.361445 0.463568
29 1 0.158427 0.395831 0.257242
30 2 0.256899 0.398881 0.266659
31 3 0.294587 0.363626 0.319995
32 3 0.296558 0.434777 0.224187
33 2 0.0998447 0.367108 0.301552
34 3 0.0198428 0.366879 0.287134
35 3 0.124819 0.324131 0.354849
36 1 0.111986 0.435553 0.195944
37 2 0.17385 0.454488 0.144067
38 4 0.13836 0.448911 0.0853906
39 4 0.267165 0.469701 0.154451
40 2 0.0106632 0.442872 0.183626
41 4 0.971794 0.479856 0.126727
42 4 0.956985 0.408373 0.226076
43 1 0.110899 0.119773 0.00612058
44 2 0.0167473 0.134808 0.987126
45 3 0.983938 0.0967268 0.932542
46 3 0.964517 0.167904 0.0228855
47 2 0.173205 0.0734391 0.968058
48 3 0.259836 0.074188 0.986873
49 3 0.142883 0.0448503 0.921248
50 1 0.152553 0.166535 0.0659532
51 2 0.0839931 0.198038 0.113185
52 4 0.114738 0.208421 0.172131
53 4 0.993231 0.199647 0.0950996
54 2 0.253654 0.17953 0.0794027
55 4 0.294399 0.245973 0.124663
56 4 0.314155 0.129434 0.0446852
57 1 0.849891 0.132473 0.246956
58 2 0.75787 0.114637 0.232734
59 3 0.723812 0.140581 0.17806
60 3 0.707394 0.0806229 0.27188
61 2 0.915319 0.171382 0.209304
62 3 0.00307951 0.172881 0.236753
63 3 0.888594 0.207396 0.166486
64 1 0.88588 0.0975557 0.311747
65 2 0.816424 0.0709165 0.360489
66 4 0.843222 0.0776688 0.418766
67 4 0.725834 0.0438124 0.3412
68 2 0.983332 0.0706237 0.325832
69 4 0.0134986 0.0181904 0.380766
70 4 0.0483507 0.10129 0.287466
71 1 0.8979 0.378028 0.509434
72 2 0.99392 0.371708 0.523216
73 3 0.0265683 0.406323 0.574106
74 3 0.0357342 0.32441 0.479754
75 2 0.839521 0.422477 0.547603
76 3 0.754077 0.428305 0.529006
77 3 0.873967 0.453934 0.602446
78 1 0.855294 0.34574 0.444286
79 2 0.916328 0.320525 0.394561
80 4 0.888776 0.321014 0.334386
81 4 0.00966979 0.301238 0.41083
82 2 0.752208 0.342571 0.432735
83 4 0.714641 0.288969 0.380107
84 4 0.695417 0.395318 0.467411
85 1 0.651017 0.40069 0.254901
86 2 0.74989 0.400947 0.265114
87 3 0.784405 0.352717 0.314473
88 3 0.8033 0.421752 0.227422
89 2 0.596208 0.376351 0.301481
90 3 0.5151 0.367142 0.281148
91 3 0.620037 0.338319 0.359123
92 1 0.60627 0.423563 0.190902
93 2 0.675783 0.440855 0.139969
94 4 0.644903 0.440446 0.0818083
95 4 0.767558 0.450396 0.157236
96 2 0.5079 0.428245 0.176395
97 4 0.468031 0.463984 0.117738
98 4 0.453132 0.40636 0.221485
99 1 0.607208 0.102639 0.997419
100 2 0.509137 0.100944 0.988604
101 3 0.485986 0.0546552 0.946314
102 3 0.465202 0.149031 0.0314838
103 2 0.660637 0.0613537 0.953183
104 3 0.74637 0.0708285 0.969725
105 3 0.625696 0.021084 0.902336
106 1 0.650926 0.156198 0.0553467
107 2 0.594568 0.190007 0.105071
108 4 0.627539 0.20058 0.165677
109 4 0.499408 0.201159 0.0934201
110 2 0.75608 0.179161 0.0597066
111 4 0.783783 0.248403 0.103914
112 4 0.813629 0.128027 0.0235815
113 1 0.338288 0.618897 0.255981
114 2 0.239752 0.620736 0.248405
115 3 0.213739 0.662818 0.195358
116 3 0.193439 0.593192 0.288679
117 2 0.391925 0.649905 0.210389
118 3 0.47602 0.633971 0.222706
119 3 0.369777 0.691091 0.153387
120 1 0.380253 0.573174 0.316939
121 2 0.312171 0.54901 0.368986
122 4 0.347825 0.545535 0.425572
123 4 0.218426 0.545708 0.357193
124 2 0.477614 0.5594 0.32776
125 4 0.519352 0.506246 0.383272
126 4 0.534604 0.596289 0.285941
127 1 0.401717 0.851509 0.501654
128 2 0.495258 0.833331 0.519114
129 3 0.539096 0.859114 0.572382
130 3 0.53084 0.801051 0.475763
131 2 0.341033 0.897623 0.537233
132 3 0.261855 0.917836 0.512776
133 3 0.374386 0.933132 0.591384
134 1 0.3594 0.823503 0.435594
135 2 0.420788 0.806971 0.384002
136 4 0.394207 0.816507 0.323801
137 4 0.510673 0.784008 0.402628
138 2 0.259181 0.828127 0.415116
139 4 0.224075 0.776331 0.362513
140 4 0.20475 0.888548 0.449923
141 1 0.148561 0.894265 0.247264
142 2 0.245227 0.898204 0.260584
143 3 0.297083 0.867219 0.309385
144 3 0.287684 0.93753 0.220418
145 2 0.091811 0.856164 0.288364
146 3 0.000409989 0.851582 0.27138
147 3 0.125418 0.822609 0.343456
148 1 0.107303 0.938278 0.185004
149 2 0.170036 0.941862 0.132724
150 4 0.143932 0.932268 0.0719677
151 4 0.25991 0.966171 0.148545
152 2 0.00554381 0.946224 0.175776
153 4 0.97362 0.994383 0.120434
154 4 0.946389 0.907032 0.215498
155 1 0.100681 0.620255 0.00581866
156 2 0.00766385 0.613032 0.993455
157 3 0.971438 0.568439 0.940814
158 3 0.963499 0.650457 0.036351
159 2 0.158061 0.582266 0.96406
160 3 0.242535 0.613254 0.980519
161 3 0.122619 0.550098 0.908104
162 1 0.144756 0.670318 0.0684835
163 2 0.0844257 0.69464 0.117706
164 4 0.11112 0.704013 0.177839
165 4 0.990142 0.704582 0.100745
166 2 0.245674 0.684734 0.0784722
167 4 0.27788 0.741957 0.132141
168 4 0.305348 0.641814 0.0400473
169 1 0.843623 0.643514 0.251257
170 2 0.747037 0.639091 0.241456
171 3 0.702326 0.675444 0.192777
172 3 0.702227 0.603265 0.283274
173 2 0.904442 0.678053 0.208968
174 3 0.982628 0.677564 0.226873
175 3 0.874269 0.721753 0.155778
176 1 0.885865 0.597796 0.311248
177 2 0.830004 0.57444 0.362547
178 4 0.864846 0.5654 0.42119
179 4 0.735776 0.561209 0.350296
180 2 0.995614 0.584034 0.322148
181 4 0.0280472 0.519573 0.364978
182 4 0.0504564 0.639384 0.285912
183 1 0.895682 0.888052 0.497375
184 2 0.994702 0.880754 0.507755
185 3 0.0219004 0.94005 0.551438
186 3 0.0350574 0.844329 0.474162
187 2 0.841992 0.93084 0.539787
188 3 0.756972 0.929491 0.515516
189 3 0.873825 0.958118 0.596677
190 1 0.853472 0.848096 0.435716
191 2 0.920744 0.82838 0.383798
192 4 0.88646 0.82747 0.326187
193 4 0.0112558 0.812905 0.400367
194 2 0.752632 0.840213 0.419913
195 4 0.717113 0.787826 0.366232
196 4 0.694064 0.883483 0.45927
197 1 0.651914 0.887545 0.246288
198 2 0.749615 0.886407 0.253799
199 3 0.775738 0.860714 0.303261
200 3 0.795762 0.917405 0.208746
201 2 0.5937 0.87357 0.289746
202 3 0.503027 0.87989 0.273104
203 3 0.626048 0.852223 0.346403
204 1 0.605436 0.924083 0.182573
205 2 0.672094 0.939059 0.131217
206 4 0.633144 0.931862 0.0741222
207 4 0.765532 0.948951 0.140417
208 2 0.508412 0.938942 0.169259
209 4 0.471215 0.974817 0.111289
210 4 0.447884 0.902434 0.211403
211 1 0.605066 0.612706 0.00338374
212 2 0.511448 0.608099 0.984339
213 3 0.480902 0.570987 0.932388
214 3 0.457963 0.637661 0.0255166
215 2 0.670297 0.582052 0.96281
216 3 0.758215 0.600939 0.983655
217 3 0.644746 0.552663 0.920136
218 1 0.638509 0.65842 0.066624
219 2 0.569773 0.676263 0.112309
220 4 0.594933 0.687052 0.17328
221 4 0.475732 0.673361 0.0935941
222 2 0.7381 0.689381 0.0791694
223 4 0.771186 0.745335 0.131943
224 4 0.803011 0.666624 0.0392447
225 1 0.356463 0.133856 0.751921
226 2 0.259407 0.150322 0.745942
227 3 0.223172 0.183894 0.702289
228 3 0.219075 0.11288 0.790356
229 2 0.410023 0.15649 0.705183
230 3 0.49681 0.149807 0.728652
231 3 0.378067 0.181633 0.648634
232 1 0.399151 0.0856543 0.810951
233 2 0.335049 0.0540304 0.864507
234 4 0.372899 0.0297156 0.919192
235 4 0.242188 0.0412227 0.851017
236 2 0.494757 0.056777 0.8221
237 4 0.526176 0.994196 0.871585
238 4 0.557257 0.0888211 0.782014
239 1 0.392436 0.354442 0.00471194
240 2 0.490359 0.354108 0.0181332
241 3 0.517524 0.404066 0.0552102
242 3 0.535792 0.289417 0.984442
243 2 0.329734 0.390899 0.0450483
244 3 0.25428 0.392377 0.0201825
245 3 0.371123 0.421567 0.0997693
246 1 0.353785 0.309225 0.942692
247 2 0.426957 0.298843 0.897278
248 4 0.397307 0.3119 0.838755
249 4 0.518567 0.280005 0.913612
250 2 0.252798 0.29783 0.923592
251 4 0.221316 0.24747 0.868327
252 4 0.193157 0.343544 0.959225
253 1 0.147799 0.3748 0.757644
254 2 0.245993 0.382096 0.772404
255 3 0.288246 0.346278 0.815659
256 3 0.288334 0.417048 0.730404
257 2 0.0908167 0.330531 0.796158
258 3 0.00320449 0.328123 0.773294
259 3 0.122811 0.282402 0.85005
260 1 0.105152 0.421982 0.697795
261 2 0.168038 0.446779 0.647745
262 4 0.13466 0.444412 0.588363
263 4 0.261526 0.450432 0.660086
264 2 0.00262541 0.436843 0.683706
265 4 0.97012 0.492686 0.631279
266 4 0.943701 0.384891 0.717505
267 1 0.0892485 0.122209 0.497611
268 2 0.990455 0.123937 0.490027
269 3 0.960095 0.10321 0.442943
270 3 0.95425 0.179968 0.524558
271 2 0.142703 0.0872135 0.454636
272 3 0.232506 0.0877995 0.474548
273 3 0.115803 0.0458929 0.399262
274 1 0.138792 0.168513 0.557652
275 2 0.0770435 0.200119 0.608332
276 4 0.11261 0.204665 0.665449
277 4 0.984715 0.217561 0.595445
278 2 0.238976 0.166833 0.569328
279 4 0.277506 0.209516 0.625389
280 4 0.298251 0.132596 0.528382
281 1 0.85042 0.13206 0.751872
282 2 0.753682 0.127049 0.74578
283 3 0.713989 0.161532 0.700418
284 3 0.71533 0.0723227 0.785701
285 2 0.900272 0.177161 0.707072
286 3 0.982357 0.175581 0.724001
287 3 0.873787 0.220409 0.654825
288 1 0.902097 0.0882311 0.809781
289 2 0.847533 0.0494904 0.859331
290 4 0.886076 0.0487756 0.918971
291 4 0.753679 0.0292669 0.849735
292 2 0.00994869 0.074608 0.816813
293 4 0.0421725 0.0200441 0.865035
294 4 0.0594731 0.125305 0.77713
295 1 0.901684 0.368097 0.00342276
296 2 0.000199861 0.35946 0.0164343
297 3 0.0342257 0.400925 0.0615107
298 3 0.0450022 0.320198 0.976334
299 2 0.849703 0.41191 0.0449597
300 3 0.764537 0.40991 0.0224329
301 3 0.872103 0.438679 0.102527
302 1 0.857738 0.330919 0.940473
303 2 0.921421 0.304998 0.89296
304 4 0.884606 0.305497 0.832547
305 4 0.0138159 0.28902 0.906812
306 2 0.754479 0.326163 0.927379
307 4 0.713631 0.272351 0.876315
308 4 0.698526 0.379683 0.962633
309 1 0.655979 0.37727 0.754702
310 2 0.747628 0.39871 0.772106
311 3 0.784457 0.358117 0.823324
312 3 0.774107 0.439845 0.724873
313 2 0.596283 0.333307 0.792459
314 3 0.513141 0.315719 0.766193
315 3 0.618567 0.315391 0.85151
316 1 0.610334 0.413893 0.691405
317 2 0.665232 0.435796 0.637506
318 4 0.633775 0.433938 0.577749
319 4 0.757778 0.451486 0.652609
320 2 0.508047 0.413909 0.678228
321 4 0.476373 0.475134 0.62977
322 4 0.449062 0.360391 0.710092
323 1 0.600032 0.113387 0.501903
324 2 0.502483 0.108588 0.487813
325 3 0.475741 0.0778293 0.431952
326 3 0.452554 0.152108 0.519504
327 2 0.660456 0.0862773 0.458584
328 3 0.739917 0.106683 0.476124
329 3 0.626773 0.0499315 0.404275
330 1 0.640253 0.159056 0.562207
331 2 0.572407 0.167996 0.611804
332 4 0.602844 0.173418 0.669614
333 4 0.480908 0.176574 0.592687
334 2 0.741817 0.182546 0.576679
335 4 0.767246 0.235463 0.630159
336 4 0.802013 0.156628 0.536029
337 1 0.337234 0.63691 0.75598
338 2 0.241681 0.654037 0.754714
339 3 0.202319 0.689975 0.715761
340 3 0.205639 0.622378 0.80432
341 2 0.389953 0.66359 0.709724
342 3 0.480278 0.649648 0.713465
343 3 0.358167 0.711462 0.656041
344 1 0.387377 0.582073 0.812802
345 2 0.335954 0.544239 0.863118
346 4 0.377816 0.52217 0.920029
347 4 0.240057 0.537688 0.851917
348 2 0.49332 0.56631 0.815566
349 4 0.534105 0.512803 0.861724
350 4 0.543698 0.606285 0.77149
351 1 0.390981 0.843412 0.00183056
352 2 0.488394 0.832328 0.015155
353 3 0.521752 0.889447 0.0526014
354 3 0.533317 0.788381 0.973499
355 2 0.332553 0.88945 0.0417241
356 3 0.253763 0.88979 0.0179161
357 3 0.373139 0.932422 0.0953322
358 1 0.353278 0.806321 0.93812
359 2 0.41842 0.800938 0.887667
360 4 0.392053 0.809442 0.826229
361 4 0.506374 0.765986 0.903258
362 2 0.251007 0.801532 0.921877
363 4 0.220037 0.761072 0.864561
364 4 0.192623 0.853641 0.956742
365 1 0.154583 0.900423 0.745963
366 2 0.249067 0.887381 0.757682
367 3 0.289712 0.845079 0.807745
368 3 0.291865 0.914464 0.720548
369 2 0.0974445 0.869167 0.791473
370 3 0.0194172 0.886958 0.776588
371 3 0.124307 0.812935 0.840797
372 1 0.112932 0.940954 0.683053
373 2 0.178314 0.960997 0.630206
374 4 0.145479 0.953083 0.573128
375 4 0.271135 0.959492 0.646294
376 2 0.0157661 0.951955 0.670159
377 4 0.97598 0.988557 0.6117
378 4 0.958046 0.927496 0.711946
379 1 0.0979651 0.6249 0.509558
380 2 0.00414587 0.628057 0.490604
381 3 0.974029 0.58812 0.440651
382 3 0.958794 0.683219 0.525085
383 2 0.162692 0.580386 0.476574
384 3 0.25477 0.58972 0.499047
385 3 0.13962 0.54932 0.4317
386 1 0.13361 0.675811 0.572431
387 2 0.0587563 0.706739 0.615526
388 4 0.091249 0.722147 0.672512
389 4 0.968227 0.721539 0.595671
390 2 0.230412 0.695798 0.587788
391 4 0.259431 0.750875 0.641657
392 4 0.296841 0.655719 0.551466
393 1 0.848972 0.622937 0.753461
394 2 0.750707 0.628252 0.743975
395 3 0.72785 0.670793 0.698519
396 3 0.703441 0.592518 0.786028
397 2 0.903721 0.654407 0.71022
398 3 0.989988 0.641634 0.725462
399 3 0.870209 0.684187 0.653784
400 1 0.894139 0.577111 0.814254
401 2 0.832237 0.558319 0.863488
402 4 0.865882 0.551174 0.923649
403 4 0.736639 0.553614 0.85214
404 2 0.996807 0.557028 0.824427
405 4 0.0331851 0.50012 0.875853
406 4 0.0527773 0.606237 0.78581
407 1 0.907777 0.852756 0.996576
408 2 0.00728063 0.853526 0.00817653
409 3 0.0361059 0.896559 0.059951
410 3 0.0481584 0.799545 0.972946
411 2 0.852253 0.891025 0.0389242
412 3 0.764046 0.88203 0.0198244
413 3 0.882339 0.940481 0.0898999
414 1 0.867958 0.813991 0.933599
415 2 0.93574 0.793036 0.882643
416 4 0.908425 0.805017 0.822701
417 4 0.0261332 0.77619 0.900368
418 2 0.767508 0.814554 0.917073
419 4 0.728634 0.776491 0.861208
420 4 0.710237 0.862122 0.956471
421 1 0.65121 0.885385 0.747078
422 2 0.749556 0.88511 0.760912
423 3 0.805903 0.847722 0.803686
424 3 0.78243 0.926956 0.718001
425 2 0.593806 0.843698 0.787358
426 3 0.509667 0.841114 0.762974
427 3 0.632239 0.820861 0.844194
428 1 0.609182 0.92008 0.684167
429 2 0.670388 0.923487 0.631187
430 4 0.63946 0.910053 0.5716
431 4 0.761771 0.947568 0.645097
432 2 0.507175 0.932277 0.668158
433 4 0.473866 0.975628 0.613192
434 4 0.448501 0.882157 0.704843
435 1 0.600978 0.618648 0.495852
436 2 0.502765 0.607829 0.487033
437 3 0.47552 0.58202 0.435813
438 3 0.445849 0.637264 0.52825
439 2 0.659864 0.602179 0.451342
440 3 0.742586 0.602854 0.476325
441 3 0.613223 0.564942 0.400888
442 1 0.640144 0.652341 0.560686
443 2 0.563604 0.675831 0.608395
444 4 0.60315 0.693588 0.661479
445 4 0.469677 0.672306 0.595391
446 2 0.733689 0.678203 0.577504
447 4 0.769658 0.722189 0.63687
448 4 0.797061 0.656712 0.536716
ITEM: TIMESTEP
2000
ITEM: NUMBER OF ATOMS
448
ITEM: BOX BOUNDS xy xz yz pp pp pp