LAMMPS data file via write_data, version 15 Apr 2020, timestep = 80000

448 atoms
4 atom types

-6.5849714029008410e-02 1.3945049714029214e+01 xlo xhi
7.6259044573369827e-01 1.2512209554266413e+01 ylo yhi
7.0751002116830719e-01 2.1972400337130601e+01 zlo zhi
-6.4418972032882671e+00 -1.9644155955274174e+00 -8.4769692749010594e-01 xy xz yz

Masses

1 12.0107
2 14.0067
3 1.00794
4 15.9994

Atoms # full

45 1 3 4.3322294164410263e-01 1.1364004591773497e+01 1.2521877175719474e+00 2.0713980864613308e+01 0 0 0
405 1 4 -4.6334112713019249e-01 -4.8402851079326048e+00 6.0978312764366693e+00 1.9536780064528806e+01 0 0 0
69 1 4 -4.6495431169182416e-01 -6.4435040781082153e-01 6.3362665485196767e-01 8.8989764624281218e+00 0 0 0
292 1 2 4.0042545097572313e-01 -2.0268928272447315e+00 7.6959183365580430e-01 1.8434368885208801e+01 1 0 0
33 1 2 -5.1580578136433941e-01 -2.4310078767810093e+00 4.8678708769216952e+00 6.6812748534087696e+00 0 0 0
35 1 3 4.2748644667240826e-01 -2.0296055684868093e+00 4.4254838420083322e+00 7.8191074326416734e+00 0 0 0
36 1 1 -1.1665310582536845e-01 -1.9092248707651627e+00 5.7936641233183366e+00 4.5207670634031825e+00 0 0 0
44 1 2 -5.4988248826342012e-01 -2.1281529790706744e+00 1.6908975174577940e+00 2.1737039661765863e+01 1 0 -1
53 1 4 -4.4980046532046208e-01 -5.2953324241117761e-01 3.4831588481104623e+00 2.8084610883499801e+00 1 0 0
62 1 3 4.0675205746568238e-01 -6.2686319737107421e-01 2.3349821899045322e+00 5.7331698627846457e+00 1 0 0
70 1 4 -4.4900240007146147e-01 2.8328890018418540e-02 1.5275257226279806e+00 6.8975406785892659e+00 0 0 0
145 1 2 -5.1006018739972325e-01 -5.6362320563197148e+00 1.0694420811511520e+01 6.7438060590052906e+00 0 0 0
147 1 3 4.3377335731935113e-01 -5.4120655452966329e+00 1.0315670948726863e+01 7.9342431713779753e+00 0 0 0
148 1 1 -1.2160478928586718e-01 -5.2064460756269906e+00 1.1447314410853979e+01 4.4693362916570898e+00 0 0 0
156 1 2 -4.9219357065248487e-01 -5.3833199420459010e+00 7.6183373767376619e+00 2.1881465771951408e+01 1 0 -1
158 1 3 4.0386532132316538e-01 -4.0759165237362343e+00 9.0317366917043742e+00 1.5631395506413308e+00 1 0 0
165 1 4 -4.5999701878748384e-01 -3.8828444479812472e+00 9.3182692326204020e+00 3.0426590719492301e+00 1 0 0
174 1 3 4.2170165335944920e-01 -4.1439506610709662e+00 8.1257096668504083e+00 5.6386562099351289e+00 1 0 0
182 1 4 -4.6789698078549052e-01 -3.4238351702918477e+00 7.4083485473743638e+00 6.8068839860534620e+00 0 0 0
257 1 2 -4.9782183906135236e-01 -3.5058974433968886e+00 4.0372314968189338e+00 1.7532280688287074e+01 0 0 0
259 1 3 4.3336015318701526e-01 -3.1180447903038004e+00 3.7067679332456058e+00 1.8704674594413614e+01 0 0 0
260 1 1 -1.2024788728967495e-01 -3.0612828600509134e+00 4.9977000863051364e+00 1.5308556979288142e+01 0 0 0
268 1 2 -5.2442287634033247e-01 -1.0914801566166290e+00 2.1318174206158913e+00 1.1303598732290148e+01 1 0 0
277 1 4 -4.4652578096174778e-01 -1.3911532890656648e+00 2.9590883570044042e+00 1.3613691961806472e+01 1 0 0
286 1 3 4.2166251051648368e-01 -1.7199916328075342e+00 1.6185987639164749e+00 1.6250061629592967e+01 1 0 0
369 1 2 -5.4564358884344044e-01 -6.7632242661804343e+00 9.9904917593648204e+00 1.7418016553159315e+01 0 0 0
371 1 3 4.2898129163665533e-01 -6.3429417521787066e+00 9.6888752188920737e+00 1.8602633255333501e+01 0 0 0
380 1 2 -5.2340436257950973e-01 -4.4088108457227744e+00 7.9795672307229797e+00 1.1234142241336425e+01 1 0 0
389 1 4 -4.5064267528078200e-01 -4.8103491102601899e+00 8.6525775398700642e+00 1.3564357248096735e+01 1 0 0
398 1 3 4.0422786719706788e-01 -4.9018294238623330e+00 7.5214552331872042e+00 1.6271463743073127e+01 1 0 0
406 1 4 -4.3790898512539755e-01 -4.2233754525071543e+00 7.0712252736637691e+00 1.7518539026508378e+01 0 0 0
181 1 4 -4.8161399564057233e-01 -4.0483478378239512e+00 6.5904261383738021e+00 8.9380661512602746e+00 0 0 0
46 1 3 4.3007479743544930e-01 -7.4613979743033343e-01 3.1224733061964951e+00 1.2870855848534060e+00 1 0 0
293 1 4 -4.6484202473308989e-01 -1.6747776604164852e+00 1.2246998428069245e-01 1.9602443004295321e+01 0 0 0
270 1 3 4.0482679603177996e-01 -1.7558201502117305e+00 2.7657227205755088e+00 1.2128943843059087e+01 1 0 0
68 1 2 4.2183793618480891e-01 -9.2871842445498509e-01 1.2479917970710395e+00 7.7396657581173169e+00 1 0 0
29 1 1 4.8224861044284950e-01 -1.4483522480405326e+00 5.3050758358126986e+00 5.8376383585765437e+00 0 0 0
141 1 1 4.9076315183097891e-01 -4.7183149377970386e+00 1.1005213804349054e+01 5.8080941366859316e+00 0 0 0
161 1 3 4.4331877991528734e-01 -3.4548399913190400e+00 6.4030442897853224e+00 2.0152562502665401e+01 0 0 0
253 1 1 4.8259105599822599e-01 -2.6050118989760493e+00 4.4243084364335949e+00 1.6615522572122476e+01 0 0 0
273 1 3 4.4053226732897116e-01 7.8119446438251283e-01 8.7230092775440293e-01 9.4749132754709393e+00 0 0 0
294 1 4 -4.5559002281276656e-01 -1.0836438515534317e+00 1.0594159532136929e+00 1.7574730279764260e+01 0 0 0
365 1 1 4.9736040256353475e-01 -5.8242432065300829e+00 1.0327400665517786e+01 1.6593495434574248e+01 0 0 0
372 1 1 -1.3174745562604304e-01 -6.2216015256211650e+00 1.0775744937171149e+01 1.5206470252412554e+01 0 0 0
374 1 4 -4.5921416653941272e-01 -5.5924733050687454e+00 1.1073748625731435e+01 1.2924732061468418e+01 0 0 0
382 1 3 4.0192120308271512e-01 -4.9016846771208318e+00 8.8585626843448146e+00 1.2070978904840981e+01 1 0 0
385 1 3 4.3307518890800417e-01 -2.6657699016407381e+00 6.8200450458555348e+00 9.5188488047924551e+00 0 0 0
38 1 4 -4.1846163073666109e-01 -1.3075771755409467e+00 5.8583780049544156e+00 2.1470768667309721e+00 0 0 0
43 1 1 4.8531314226309064e-01 1.1373976380923618e+00 2.2403790153783074e+00 7.9869499518308895e-01 0 0 0
49 1 3 4.3768350512786186e-01 -3.0248266435087467e-01 5.5976175759586566e-01 2.0055436246662111e+01 0 0 0
51 1 2 4.2507412148547780e-01 6.8918292181254170e-01 3.1479964122076436e+00 3.1757250592618878e+00 0 0 0
139 1 4 -4.8560902861423172e-01 -4.1357072029258921e+00 9.6454472560460509e+00 8.3970490200762313e+00 0 0 0
150 1 4 -4.4429264578071803e-01 -4.5878257576018546e+00 1.1557593547853839e+01 2.1181439328249119e+00 0 0 0
251 1 4 -5.0479328244488131e-01 -1.8147618798011509e+00 3.1947463037872263e+00 1.9289293355189375e+01 0 0 0
262 1 4 -4.1341411275012002e-01 -2.5601191805795023e+00 5.2957593193872006e+00 1.2952130650989865e+01 0 0 0
267 1 1 4.8959169328794400e-01 2.1931292131453639e-01 1.7937802355854195e+00 1.1491544776729466e+01 0 0 0
275 1 2 4.3057401331015288e-01 -1.5224326831844381e-01 2.5785630494295284e+00 1.3942178977562246e+01 0 0 0
363 1 4 -4.8661413414159049e-01 -5.1251966992444000e+00 9.0097811248785629e+00 1.9167283545978812e+01 0 0 0
379 1 1 4.7114921904109269e-01 -3.0981922629943339e+00 7.6857288932486982e+00 1.1475559822451753e+01 0 0 0
27 1 4 -4.9822997310968997e-01 -7.6928815341463097e-01 3.7866165705226074e+00 8.3954536043572130e+00 0 0 0
155 1 1 5.0271052310778619e-01 -2.1312590626476200e+00 8.2288248189622006e+00 8.7124570424587444e-01 0 0 0
163 1 2 4.4381220357893952e-01 -2.6139938364740400e+00 8.9740508034044932e+00 3.3323698705187299e+00 0 0 0
261 1 2 4.1853031703295224e-01 -2.1080369007219852e+00 5.2943494148672325e+00 1.4181934458568717e+01 0 0 0
387 1 2 4.2596599302371541e-01 -3.5296060919823065e+00 8.3853236570615302e+00 1.3871431652466621e+01 0 0 0
157 1 3 4.2717524904015552e-01 -5.8712383263981796e+00 7.3334113425892449e+00 2.0734853114156646e+01 1 0 0
47 1 2 -4.8671302081119378e-01 7.6673885891381355e-02 8.2483109135866162e-01 2.1261663359904635e+01 0 0 0
140 1 4 -4.6309458805613840e-01 -4.4405365353576993e+00 1.0534889016431579e+01 1.0485079788530753e+01 0 0 0
149 1 2 4.4425153133815226e-01 -4.1879092407956406e+00 1.1568442296804626e+01 3.3583797528931627e+00 0 0 0
364 1 4 -4.1775053547751817e-01 -5.4702741182158796e+00 1.0162928075112813e+01 2.1095689099403330e+01 0 0 0
373 1 2 4.4156351951244838e-01 -5.1749323747684883e+00 1.0910777704819948e+01 1.4159504182675450e+01 0 0 0
297 1 3 4.3180077837973596e-01 1.1256515972151222e+01 5.2465716016225388e+00 1.9990955166507338e+00 -1 0 0
404 1 2 4.1498875129568491e-01 -5.1698827755785386e+00 6.6810841149644187e+00 1.8396008438394887e+01 1 0 0
28 1 4 -4.6147485449374182e-01 -1.2399935608994901e+00 4.9195151047484984e+00 1.0400053109284825e+01 0 0 0
37 1 2 4.1598229854362845e-01 -9.4257097321805206e-01 5.9171505668563489e+00 3.4018702954973588e+00 0 0 0
50 1 1 -1.1749135088546425e-01 1.6274026988229724e+00 2.6870482231445649e+00 2.1347355827876493e+00 0 0 0
52 1 4 -4.3410519352963928e-01 1.0078567074270486e+00 3.0682726635983713e+00 4.4421104360382628e+00 0 0 0
138 1 2 3.8815253022491486e-01 -3.5934401071147950e+00 1.0129894373367680e+01 9.5705155920883005e+00 0 0 0
159 1 2 -5.1608131368927401e-01 -3.2263762088427663e+00 6.8357041278168875e+00 2.1336534491573016e+01 0 0 0
164 1 4 -4.4273218943809911e-01 -2.2779384532266835e+00 8.8988856274602064e+00 4.5969768100997070e+00 0 0 0
252 1 4 -4.4518991359706295e-01 -2.1316685738301118e+00 4.3875779590935977e+00 2.1166420983909727e+01 0 0 0
271 1 2 -5.1767713560515316e-01 1.0492468369615913e+00 1.2194036920612270e+00 1.0643914371986813e+01 0 0 0
274 1 1 -1.2191402212408124e-01 7.3380525772852523e-01 2.1773608440252064e+00 1.2841731695275470e+01 0 0 0
276 1 4 -4.3229067701913143e-01 9.2390363012681886e-02 2.5916172025902262e+00 1.5227938189589683e+01 0 0 0
362 1 2 3.4981080081455279e-01 -4.5849271053030556e+00 9.7052332343903505e+00 2.0235661294757669e+01 0 0 0
383 1 2 -4.9056189164555586e-01 -2.1772549006230859e+00 7.1961143471667022e+00 1.0626755517463904e+01 0 0 0
388 1 4 -4.5164734452360045e-01 -3.2438783556062845e+00 8.1672477267410013e+00 1.5140235487538726e+01 0 0 0
26 1 2 3.8920185578057609e-01 -4.0064173137937065e-01 4.3174838147762342e+00 9.5791665850808290e+00 0 0 0
30 1 2 -5.5428219473520246e-01 -1.2707083978196831e-01 5.2056701398581753e+00 6.0314309527224390e+00 0 0 0
142 1 2 -5.5452285998491413e-01 -3.4017666987187951e+00 1.0817730790082942e+01 6.0407678420086297e+00 0 0 0
162 1 1 -1.1760791230058397e-01 -1.6850975432360757e+00 8.6272772401003515e+00 2.2806709733594497e+00 0 0 0
250 1 2 4.1928357132200861e-01 -1.3004376403399742e+00 3.8285904338397470e+00 2.0309082906031765e+01 0 0 0
254 1 2 -5.4412116972957636e-01 -1.3001547031230767e+00 4.3896510501950594e+00 1.6800308563982856e+01 0 0 0
366 1 2 -5.6432426106278488e-01 -4.4994202887127859e+00 1.0285779645422011e+01 1.6879984168606939e+01 0 0 0
367 1 3 4.3594100872889679e-01 -4.0931639896957819e+00 9.7567913667026147e+00 1.7897504873224449e+01 0 0 0
386 1 1 -1.1388094040204208e-01 -2.5879467619880976e+00 8.1343702373161051e+00 1.2794436160055142e+01 0 0 0
409 1 3 4.2637647281122493e-01 7.9648706649212651e+00 1.1059461501487590e+01 1.9872167610014138e+00 -1 0 0
152 1 2 3.9034955616681100e-01 7.4595277648516483e+00 1.1823530322483025e+01 4.2238744949242202e+00 -1 0 0
185 1 3 4.3385100768450097e-01 6.9578707730947205e+00 1.0600694208101750e+01 1.2631721403865441e+01 -1 0 0
269 1 3 4.1720523501037854e-01 -1.4939168919837238e+00 1.8969332848291656e+00 1.0152479086755552e+01 1 0 0
376 1 2 4.1441143838466044e-01 6.4504027994477804e+00 1.1133374922297829e+01 1.4969074465391078e+01 -1 0 0
377 1 4 -4.8186894293529281e-01 6.1474385522873227e+00 1.1810672216335146e+01 1.3848536937512515e+01 0 0 0
264 1 2 3.7817276819073792e-01 9.6138504810293810e+00 5.2571873272401426e+00 1.4969914166954922e+01 -1 0 0
73 1 3 4.1392759551295710e-01 1.0115862874150945e+01 4.4743115553916430e+00 1.2702512451598471e+01 -1 0 0
186 1 3 4.4141328387234890e-01 7.1753324274806083e+00 9.6150457677393444e+00 1.0780731590856115e+01 -1 0 0
40 1 2 3.9907160560441518e-01 -3.3114907871950834e+00 5.9865128906151854e+00 4.2182209932401964e+00 0 0 0
74 1 3 4.0210885369725935e-01 1.0456812646398673e+01 3.6536637810742141e+00 1.0629756606685056e+01 -1 0 0
180 1 2 4.3107430983319589e-01 -4.3310392771424544e+00 7.1282602566810720e+00 7.7259595397758742e+00 1 0 0
298 1 3 4.1111579146552757e-01 9.4954986492350919e+00 3.5209100087758460e+00 2.1236801858487315e+01 -1 0 0
265 1 4 -4.3403854774727235e-01 9.2656632009823383e+00 5.9205519863471343e+00 1.3836078534238355e+01 0 0 0
41 1 4 -4.7935084695416547e-01 1.0458338572065564e+01 6.6294758454666125e+00 3.0355919481834173e+00 0 0 0
381 1 3 4.4663580584903734e-01 -4.7514855911565768e+00 7.8049224192194036e+00 1.0209370316650427e+01 1 0 0
2 1 2 -5.4302989045368444e-01 2.8881315636791083e+00 1.9297318978639066e+00 5.8188849973814412e+00 0 0 0
3 1 3 4.1543158715649414e-01 2.3298747787738190e+00 2.2739827753540229e+00 4.7599914777137302e+00 0 0 0
4 1 3 4.0927623703330362e-01 2.2788795622811162e+00 1.4273306068635416e+00 6.7436414804446763e+00 0 0 0
11 1 4 -4.7518936527414063e-01 2.4275401712105471e+00 9.4363352279907642e-01 8.2369154447430475e+00 0 0 0
20 1 3 3.8930299085509273e-01 -4.5028541447617254e-01 5.1555877994854420e+00 1.1738583421100039e+01 0 0 0
48 1 3 4.0669038333353202e-01 1.2499253113020485e+00 7.8348745312329626e-01 2.1636796970069103e+01 0 0 0
54 1 2 3.4093648394222126e-01 3.0373057157189121e+00 2.7393105028935425e+00 2.4221435664479349e+00 0 0 0
115 1 3 4.1233132433530989e-01 -8.4820980674423396e-01 8.3479369693804806e+00 4.8642102480051372e+00 0 0 0
116 1 3 4.1438290427904467e-01 -1.1835455323424062e+00 7.4208663828341921e+00 6.8531517805854358e+00 0 0 0
123 1 4 -4.7118594030400718e-01 -8.9112207384974518e-01 6.9884871437153375e+00 8.3055161571314446e+00 0 0 0
132 1 3 3.9573901498979763e-01 -3.6988654829489849e+00 1.1075948355071997e+01 1.1758716308463963e+01 0 0 0
143 1 3 4.3941057422488100e-01 -3.0853999632257034e+00 1.0289179161177529e+01 7.1130962269003168e+00 0 0 0
144 1 3 4.3952636094129632e-01 -2.5798394888901641e+00 1.1115985892574447e+01 5.2379978436612227e+00 0 0 0
151 1 4 -4.7771665434215721e-01 -2.9277758235108458e+00 1.1552654848795465e+01 3.7435077673149939e+00 0 0 0
226 1 2 -6.0197067178353114e-01 1.8043098570076488e+00 1.4453134009687605e+00 1.6755145778724479e+01 0 0 0
227 1 3 4.2669567177983109e-01 1.4427240563344692e+00 1.9651650621568808e+00 1.5648130697293542e+01 0 0 0
228 1 3 4.4466205311460000e-01 1.1446803855619558e+00 9.6373808764731916e-01 1.7469870584665856e+01 0 0 0
235 1 4 -4.8250619470816003e-01 1.4052423680383448e+00 6.9981860827219367e-01 1.9072689700223314e+01 0 0 0
255 1 3 4.3156822678350737e-01 -7.6096975422144153e-01 3.9536214156501281e+00 1.7838576334107763e+01 0 0 0
272 1 3 3.9448101638815769e-01 2.2281177918849928e+00 1.1599162440169961e+00 1.1124380230657005e+01 0 0 0
278 1 2 3.9932028310305634e-01 2.1421549407022669e+00 2.2256983069981757e+00 1.3133444785928772e+01 0 0 0
339 1 3 4.2545594806449444e-01 -1.7854907840143848e+00 7.9087850862891793e+00 1.5379195650675914e+01 0 0 0
340 1 3 4.2218040422400077e-01 -1.9315221507947868e+00 6.8684113649158123e+00 1.7295215484696456e+01 0 0 0
347 1 4 -4.6890289701131732e-01 -1.8364717005008382e+00 6.3396840221472468e+00 1.8845174326969261e+01 0 0 0
356 1 3 4.0169797471391361e-01 -2.6764076591392136e+00 1.1656897243558214e+01 1.0023944975975827e+00 0 0 0
368 1 3 4.1101131301527360e-01 -3.7647761127309272e+00 1.0758581232892412e+01 1.5972809562642816e+01 0 0 0
375 1 4 -4.8584678363783396e-01 -3.9384500743434714e+00 1.1216939111910802e+01 1.4488734085611833e+01 0 0 0
384 1 3 4.2226959877639542e-01 -9.9637731509941840e-01 6.9319921157441522e+00 1.0976037078886877e+01 0 0 0
9 1 2 4.2138471899930013e-01 3.6641488395965780e+00 1.2241237400416669e+00 8.5826595353893680e+00 0 0 0
22 1 1 -1.2509426564917742e-01 9.7289013154884507e-01 4.2206929054746070e+00 9.9169846145353233e+00 0 0 0
31 1 3 4.2100700156156207e-01 3.3724227327450407e-01 4.6566975428080539e+00 7.1155622692560616e+00 0 0 0
32 1 3 4.2754957947353911e-01 6.1535359058555661e-01 5.6435591838275805e+00 5.2373164718047809e+00 0 0 0
39 1 4 -4.6628284360937300e-01 3.1019383868267464e-01 6.1826491543964188e+00 3.7416532063921744e+00 0 0 0
56 1 4 -4.2897435290509234e-01 3.9335557119602726e+00 2.1876629536455923e+00 1.6265183822016824e+00 0 0 0
114 1 2 -5.2776295829835940e-01 -4.2631424163519160e-01 7.8853493904905019e+00 5.9414868435893577e+00 0 0 0
131 1 2 -5.3152734747180486e-01 -2.5455973862268140e+00 1.1008330655178682e+01 1.2118477463057546e+01 0 0 0
134 1 1 -1.2506462071203445e-01 -2.2043850913854302e+00 1.0265190015334984e+01 9.8164378708876754e+00 0 0 0
136 1 4 -4.4516926990452016e-01 -1.5831554179900467e+00 9.9975536299506071e+00 7.5573995274767443e+00 0 0 0
160 1 3 4.0418848303473065e-01 -2.0944769456295389e+00 6.6950234887673723e+00 2.1845369433837558e+01 0 0 0
166 1 2 3.6411097272382781e-01 -2.9031325225079457e-01 8.7274896790289720e+00 2.5499445939386431e+00 0 0 0
233 1 2 4.3259421212131294e-01 2.6537264479716614e+00 8.2765937743292184e-01 1.9387415682469143e+01 0 0 0
244 1 3 4.1313607471731317e-01 6.7777509877414432e-01 5.8513764603329994e+00 1.1052448128516195e+00 0 0 0
256 1 3 4.0525699555378597e-01 -7.5867792475939133e-01 4.9182162285024091e+00 1.5813753227195162e+01 0 0 0
263 1 4 -4.7449500556026869e-01 -8.5458892673479370e-01 5.5796491823504484e+00 1.4405461520265680e+01 0 0 0
279 1 4 -4.9699568927046184e-01 2.5455029929982000e+00 2.7094902289976579e+00 1.4311099028731965e+01 0 0 0
280 1 4 -4.6298331634702861e-01 3.0212076859789274e+00 1.8135682672356608e+00 1.2241777328588638e+01 0 0 0
338 1 2 -5.4109905815779902e-01 -1.3319566411450390e+00 7.3585473446199723e+00 1.6463991089116202e+01 0 0 0
355 1 2 -4.9207357256009959e-01 -1.6036363421237287e+00 1.1572825027222322e+01 1.4842416553204760e+00 0 0 0
358 1 1 -1.2317505117683664e-01 -3.2114929156879128e+00 9.7401802568969789e+00 2.0512606024094179e+01 0 0 0
359 1 2 4.3756305165468823e-01 -2.2221606617442493e+00 9.3801780815628710e+00 1.9496147483588224e+01 0 0 0
360 1 4 -4.3258435807873546e-01 -2.5962754266311512e+00 9.4052932665402604e+00 1.8250691667785880e+01 0 0 0
390 1 2 3.8969826164337762e-01 -1.1398218540590901e+00 8.1251806900221233e+00 1.3000830843487385e+01 0 0 0
19 1 2 -4.9502056106437670e-01 6.3183779381753946e-01 5.0939856088816509e+00 1.2222476084413325e+01 0 0 0
24 1 4 -4.4020845287537586e-01 1.7073310585804164e+00 4.1246185836098981e+00 7.5151270587598962e+00 0 0 0
55 1 4 -4.6095788306738267e-01 3.5011476107454969e+00 3.2443517250970051e+00 3.6066747347253232e+00 0 0 0
127 1 1 5.0655026384143043e-01 -1.6773670008764379e+00 1.0558646306723569e+01 1.1197005790772517e+01 0 0 0
133 1 3 4.4440481658942699e-01 -2.2681717667709043e+00 1.1518704624832930e+01 1.3247226578618644e+01 0 0 0
135 1 2 4.3589848314891322e-01 -1.1751987450352441e+00 9.9786211899347297e+00 8.8022087597165228e+00 0 0 0
168 1 4 -4.4247100210768686e-01 6.0325013556976659e-01 8.1674167474647419e+00 1.7677134524878155e+00 0 0 0
225 1 1 5.2877472509492851e-01 3.1442182864495924e+00 1.4124038668469483e+00 1.6971589214428871e+01 0 0 0
234 1 4 -4.4724236440412835e-01 3.0047542597658925e+00 9.9322707163309776e-01 2.0650988235591552e+01 0 0 0
243 1 2 -5.1731020672798778e-01 1.7719017264414880e+00 5.8105496110498924e+00 1.4656654365749939e+00 0 0 0
246 1 1 -1.3021187712390586e-01 1.4562392142648917e-01 3.8958175481575368e+00 2.0546879005696614e+01 0 0 0
248 1 4 -4.4235984963168129e-01 7.2963307823850188e-01 3.6512694325000110e+00 1.8249245281163454e+01 0 0 0
345 1 2 4.5847176983942106e-01 -6.2259732991937655e-01 6.5757385316525898e+00 1.9222595959393587e+01 0 0 0
351 1 1 4.8365610124538755e-01 -2.7180056713631702e+00 1.0163061685262845e+01 2.1898669962261735e+01 0 0 0
357 1 3 4.3397984265234607e-01 -1.1992963284428328e+00 1.1908598663241460e+01 2.7239320760851813e+00 0 0 0
392 1 4 -4.4524926639484785e-01 -2.6824086642248846e-01 7.5998996876338962e+00 1.2170890095043401e+01 0 0 0
1 1 1 4.6974245356697053e-01 4.2014176351963304e+00 1.9463464060193980e+00 6.0858241923995173e+00 0 0 0
10 1 4 -4.3159333684709927e-01 4.0768668543275046e+00 1.3075070372120574e+00 9.8218124700525102e+00 0 0 0
121 1 2 4.4027783106063884e-01 3.4503138331991157e-01 7.3099728985343120e+00 8.6257899889286946e+00 0 0 0
167 1 4 -4.9375844051033130e-01 8.1072869902286293e-02 9.4900973255755243e+00 3.6212371970387958e+00 0 0 0
391 1 4 -4.9349070194906502e-01 -6.2734175844489748e-01 8.7615114759763149e+00 1.4059942543116996e+01 0 0 0
5 1 2 -4.6860999781930518e-01 5.1297104659120167e+00 2.2189761282889457e+00 5.1657026619107667e+00 0 0 0
7 1 3 4.2092779513238054e-01 4.6875072175447636e+00 2.4284998113937508e+00 3.9523507445097517e+00 0 0 0
8 1 1 -1.2085884189212059e-01 4.6399082737693744e+00 1.4858281108128377e+00 7.4729641389323911e+00 0 0 0
15 1 1 4.6811195010199430e-01 1.4750742286135190e+00 4.5965925284772995e+00 1.1286071941382803e+01 0 0 0
21 1 3 4.3491207524483239e-01 9.6680831160847869e-01 5.6921761942174189e+00 1.3368571393777273e+01 0 0 0
23 1 2 4.4131634278710707e-01 1.9364958240376879e+00 3.9980186536477751e+00 8.8052323133719241e+00 0 0 0
113 1 1 4.6282957722303680e-01 9.1206842729298987e-01 7.9335658549234953e+00 6.1131795186899716e+00 0 0 0
120 1 1 -1.1135042618827706e-01 1.3173860632434511e+00 7.4784742290081825e+00 7.4916262905337305e+00 0 0 0
122 1 4 -4.5624047019174202e-01 7.2799590523759217e-01 7.2725466723618624e+00 9.8741221447174468e+00 0 0 0
137 1 4 -4.5132725893410008e-01 9.7051894561610008e-02 9.6706305183495758e+00 9.0054928331455759e+00 0 0 0
210 1 4 -4.4823507938277929e-01 -3.6709334026820972e-01 1.1369125830814827e+01 5.0939865247655662e+00 0 0 0
229 1 2 -5.6096493191425045e-01 4.0887632418582314e+00 1.6473289971541383e+00 1.6110737942782173e+01 0 0 0
231 1 3 4.2795360030283369e-01 3.7654939896646389e+00 1.9760927411491420e+00 1.4971878579367100e+01 0 0 0
232 1 1 -1.2128144645380957e-01 3.6507005184041148e+00 9.6920295811700841e-01 1.8318701854182056e+01 0 0 0
239 1 1 4.9626990783094443e-01 6.6041269240503953e-01 4.3453180160873721e+00 2.1900571528671325e+01 0 0 0
245 1 3 4.4208445700460819e-01 2.0623558315720070e+00 6.0686671401733143e+00 2.7309987902259962e+00 0 0 0
247 1 2 4.5186253539378612e-01 1.0853712864177005e+00 3.6056443012351003e+00 1.9500873514543496e+01 0 0 0
337 1 1 4.7585611705376957e-01 1.1111672727605715e-02 7.3587934212814332e+00 1.6737191069039248e+01 0 0 0
346 1 4 -4.4197164590130272e-01 -3.0784437035424150e-01 6.6288586140264920e+00 2.0451005974523358e+01 0 0 0
352 1 2 -5.1668583895251285e-01 5.4774014567246398e-01 1.0823893774058776e+01 8.3752882033770493e-01 0 0 1
361 1 4 -4.6251249910462477e-01 -9.6887984819675510e-01 9.0682786352412119e+00 1.9793308376979404e+01 0 0 0
434 1 4 -4.3671227642190619e-01 -1.4071808832492361e+00 1.0752976367875652e+01 1.5679696829065014e+01 0 0 0
16 1 2 -4.9608528159350285e-01 2.7615591801216062e+00 4.2896115850508654e+00 1.1489601178875011e+01 0 0 0
25 1 4 -4.4101324077438742e-01 3.2069613414838924e+00 3.8033231095018678e+00 9.1641563685554139e+00 0 0 0
98 1 4 -4.3317298535271759e-01 2.7751900001375924e+00 5.3998369854065480e+00 5.0907797146076481e+00 0 0 0
117 1 2 -5.3088726489812821e-01 1.8267382372292906e+00 8.3672620399103828e+00 5.2050432442379568e+00 0 0 0
119 1 3 4.2229685482564022e-01 1.3178469337816776e+00 8.8439363254946990e+00 4.1258004764986280e+00 0 0 0
128 1 2 -5.2060796807375775e-01 -3.9463227646800059e-01 1.0325149483147051e+01 1.1418093801435166e+01 0 0 0
129 1 3 4.2654678944165914e-01 8.5958144740488907e-02 1.0642630939885368e+01 1.2539538818303267e+01 0 0 0
130 1 3 4.0688399363692485e-01 2.2815066743694290e-01 9.7004006460804799e+00 1.0550323358663732e+01 0 0 0
202 1 3 4.1927973735226515e-01 2.3027487464990570e-01 1.0694267056213960e+01 6.3790664835222231e+00 0 0 0
208 1 2 4.1206817277686530e-01 5.1281428303201315e-01 1.1709018782181381e+01 4.1825140996485661e+00 0 0 0
209 1 4 -4.7612096499625622e-01 1.0461607230275116e-01 1.2404671933757532e+01 3.0683311621164830e+00 0 0 0
249 1 4 -4.6556165307339425e-01 2.3824436190084324e+00 3.3950412039693574e+00 1.9796818113017430e+01 0 0 0
322 1 4 -4.4068128897303777e-01 1.7714444333336434e+00 5.1528613483899024e+00 1.5845542146539390e+01 0 0 0
343 1 3 4.2530055053413485e-01 5.5032826029531234e-01 7.9946565132465279e+00 1.4597872806217135e+01 0 0 0
344 1 1 -1.2173923968748557e-01 3.9411025977592229e-01 6.9439651643629148e+00 1.8096167203455153e+01 0 0 0
353 1 3 4.2992811345280568e-01 9.9144222769027346e-01 1.1195940314385977e+01 1.8506368490891785e+00 0 0 0
354 1 3 4.0678832578629270e-01 -6.9925797150983326e-01 9.2978461166317476e+00 2.1259278309878294e+01 0 0 0
426 1 3 4.1197311551377447e-01 -6.7577175945257073e-01 1.0255945282619070e+01 1.6956140165994466e+01 0 0 0
432 1 2 4.1138788610878541e-01 -4.6718423942216658e-01 1.1075565753278175e+01 1.4796920911407792e+01 0 0 0
433 1 4 -4.5771219077815301e-01 -8.5287744849750347e-01 1.1807613603929708e+01 1.3732508835270195e+01 0 0 0
12 1 2 3.7639486771698638e-01 5.9418433577361753e+00 1.1748229170567925e+00 7.8110101877109344e+00 0 0 0
13 1 4 -4.5591379340085147e-01 6.2986144828108124e+00 5.6403358629263733e-01 8.9793595816959808e+00 0 0 0
101 1 3 4.4257550758152470e-01 4.4953755847562427e+00 1.5098809547742071e+00 2.0847941907209172e+01 0 0 0
102 1 3 4.0012175325913391e-01 6.4346227867840629e+00 3.3422435903321195e+00 1.5406270738106920e+00 0 0 0
236 1 2 4.0523299541051189e-01 5.0350229485441966e+00 7.2060462269502035e-01 1.8623012390865341e+01 0 0 0
325 1 3 4.3360699340893238e-01 5.5571286100535611e+00 1.9335037284487786e+00 1.0033927845257780e+01 0 0 0
18 1 3 4.0859384761521533e-01 3.4769615921250212e+00 3.6912464503577880e+00 1.0659189892557498e+01 0 0 0
90 1 3 4.1204166224375732e-01 3.4014483338461381e+00 4.8521791097747844e+00 6.3642369156481342e+00 0 0 0
96 1 2 3.9487590448410348e-01 3.7752407081956068e+00 5.7150330157190341e+00 4.2696842545623301e+00 0 0 0
97 1 4 -4.5852512558473157e-01 3.4192151983091961e+00 6.4241168547253960e+00 3.1700706685372424e+00 0 0 0
213 1 3 4.6232413488707352e-01 1.2482382492844983e+00 7.1396112468385242e+00 2.0841472005871132e+01 0 0 0
240 1 2 -5.1048388639497688e-01 3.9013578671664608e+00 4.9169813112997778e+00 8.6155438485649383e-01 0 0 1
241 1 3 4.2139598755418811e-01 4.3372566575579636e+00 5.3003869329038595e+00 1.8985777337773297e+00 0 0 0
242 1 3 4.1541353300927003e-01 2.7040718671929147e+00 3.4166000028198917e+00 2.1249867456133700e+01 0 0 0
314 1 3 4.1456678815201764e-01 2.3936776507207496e+00 4.4614461846872002e+00 1.7020870793934638e+01 0 0 0
320 1 2 3.9567538285091358e-01 2.7173625529331824e+00 5.2434617695294587e+00 1.4918163533917575e+01 0 0 0
321 1 4 -4.7542394679255129e-01 2.3817316039246759e+00 5.8614009074228015e+00 1.3743085448268998e+01 0 0 0
341 1 2 -4.9816615833853189e-01 9.0958797674654823e-01 7.7297862065969847e+00 1.5811818052308498e+01 0 0 0
6 1 3 4.0564254302125680e-01 6.2728817025873340e+00 2.0839583694306056e+00 5.7452366051432859e+00 0 0 0
100 1 2 -5.2373152513035270e-01 4.9971177009160810e+00 1.8563705552646166e+00 2.1879500982447293e+01 0 0 -1
109 1 4 -4.3673844080713670e-01 6.5449271794919941e+00 3.4214510614857239e+00 3.0752326431996915e+00 0 0 0
201 1 2 -5.2535523702540099e-01 1.3975454054096987e+00 1.0730899004915065e+01 6.7487666152844303e+00 0 0 0
230 1 3 4.1647866018629648e-01 5.3226540526294821e+00 1.5010839929735280e+00 1.6470200180134494e+01 0 0 0
237 1 4 -4.6646913640624599e-01 5.2997633386510881e+00 2.1087829312048134e-01 1.9849243214651018e+01 0 0 0
324 1 2 -5.3681170922159183e-01 5.9073130637569795e+00 2.2578092510480845e+00 1.1109359942167517e+01 0 0 0
326 1 3 4.1545284920917352e-01 5.2339061306797330e+00 2.8200477393704184e+00 1.1968176496396328e+01 0 0 0
333 1 4 -4.3186188034456363e-01 5.4475318753713298e+00 2.6899736863366952e+00 1.3538166999686810e+01 0 0 0
425 1 2 -5.2212824277857950e-01 3.9359085117437309e-01 1.0188874697521983e+01 1.7413688205490519e+01 0 0 0
258 1 3 3.9872427787765424e-01 9.3215875346703267e+00 4.1372529968845200e+00 1.7017837921246834e+01 -1 0 0
34 1 3 4.3010465155571731e-01 1.0464312584141252e+01 5.0079281623823846e+00 6.2527269630926110e+00 -1 0 0
17 1 3 4.2087748855967222e-01 3.2427956895874175e+00 4.6487550314259156e+00 1.2598450340294551e+01 0 0 0
124 1 2 3.6819765575673402e-01 2.6471277990000983e+00 7.1681096445636294e+00 7.7939244202591658e+00 0 0 0
348 1 2 4.1112206648192062e-01 1.7155072952670771e+00 6.6722175628659910e+00 1.8383489952592917e+01 0 0 0
437 1 3 4.1270118656087473e-01 2.1957861388825362e+00 7.7510801626885000e+00 1.0090572349276030e+01 0 0 0
14 1 4 -4.3499259194298590e-01 6.9344298497680761e+00 1.4587350536245927e+00 6.9370109368622623e+00 0 0 0
60 1 3 4.1591588232313786e-01 9.1806223197286148e+00 1.6451945013263485e+00 6.8019011680559389e+00 0 0 0
67 1 4 -4.7998383319725368e-01 9.4542190824493808e+00 1.2940980451282027e+00 8.2689351441687045e+00 0 0 0
76 1 3 4.0708885473677792e-01 6.5837191196789773e+00 5.4228274314099147e+00 1.1605616165359340e+01 0 0 0
82 1 2 3.7594072496382858e-01 6.6896400498707953e+00 4.2969578384505418e+00 9.4990509472302236e+00 0 0 0
83 1 4 -4.9029912989369634e-01 6.2414921039864346e+00 3.6495676194729501e+00 8.4130674453139633e+00 0 0 0
84 1 4 -4.4814120529233281e-01 5.8703941074208723e+00 4.9271623543275327e+00 1.0330472704512392e+01 0 0 0
85 1 1 5.0322703893975618e-01 5.5822912076723448e+00 5.0342124528705394e+00 5.8893238454830188e+00 0 0 0
86 1 2 -5.3796035276109244e-01 6.8829822442957758e+00 5.0471183914465181e+00 6.1455841679321521e+00 0 0 0
87 1 3 4.1202015539057235e-01 7.3886898253725866e+00 4.6416285317405395e+00 7.2683330747144126e+00 0 0 0
88 1 3 4.3025292155503725e-01 7.6455317626027659e+00 5.2159452668278234e+00 5.1958835857659817e+00 0 0 0
89 1 2 -5.0585201462191987e-01 4.6525564030966944e+00 4.7248059083629217e+00 6.7731393705860050e+00 0 0 0
91 1 3 4.2676675139322606e-01 4.9588500942351450e+00 4.3892864719008822e+00 7.9608207768117740e+00 0 0 0
92 1 1 -1.1665049175269319e-01 5.1510884249532873e+00 5.4481480621799392e+00 4.4802408456970140e+00 0 0 0
93 1 2 4.2375929312452648e-01 6.1349221258581288e+00 5.7039863532401327e+00 3.4303515675364444e+00 0 0 0
94 1 4 -4.5707484100258206e-01 5.8400681295458616e+00 5.7847395476821708e+00 2.1559206256731080e+00 0 0 0
95 1 4 -4.5511135402606984e-01 7.4182125093661853e+00 5.8556144990740835e+00 3.7667366137667697e+00 0 0 0