ITEM: TIMESTEP
0
ITEM: NUMBER OF ATOMS
336
ITEM: BOX BOUNDS xy xz yz pp pp pp
0.0000000000000000e+00 2.6364000320399999e+01 0.0000000000000000e+00
0.0000000000000000e+00 1.1574000358599999e+01 0.0000000000000000e+00
0.0000000000000000e+00 1.0708999633800000e+01 0.0000000000000000e+00
ITEM: ATOMS id type xs ys zs
1 1 0.0944878 0.358229 0.444995
2 1 0.905512 0.641771 0.555005
3 1 0.155512 0.641771 0.944995
4 1 0.344488 0.358229 0.0550046
5 1 0.905512 0.858229 0.0550046
6 1 0.0944878 0.141771 0.944995
7 1 0.344488 0.141771 0.555005
8 1 0.155512 0.858229 0.444995
9 1 0.594488 0.358229 0.444995
10 1 0.405512 0.641771 0.555005
11 1 0.655512 0.641771 0.944995
12 1 0.844488 0.358229 0.0550046
13 1 0.405512 0.858229 0.0550046
14 1 0.594488 0.141771 0.944995
15 1 0.844488 0.141771 0.555005
16 1 0.655512 0.858229 0.444995
17 1 0.0239178 0.235855 0.339303
18 1 0.976082 0.764145 0.660697
19 1 0.226082 0.764145 0.839303
20 1 0.273918 0.235855 0.160697
21 1 0.976082 0.735855 0.160697
22 1 0.0239178 0.264145 0.839303
23 1 0.273918 0.264145 0.660697
24 1 0.226082 0.735855 0.339303
25 1 0.523918 0.235855 0.339303
26 1 0.476082 0.764145 0.660697
27 1 0.726082 0.764145 0.839303
28 1 0.773918 0.235855 0.160697
29 1 0.476082 0.735855 0.160697
30 1 0.523918 0.264145 0.839303
31 1 0.773918 0.264145 0.660697
32 1 0.726082 0.735855 0.339303
33 1 0.0765984 0.381663 0.208682
34 1 0.923402 0.618337 0.791318
35 1 0.173402 0.618337 0.708682
36 1 0.326598 0.381663 0.291318
37 1 0.923402 0.881663 0.291318
38 1 0.0765985 0.118337 0.708682
39 1 0.326598 0.118337 0.791318
40 1 0.173402 0.881663 0.208682
41 1 0.576598 0.381663 0.208682
42 1 0.423402 0.618337 0.791318
43 1 0.673402 0.618337 0.708682
44 1 0.826598 0.381663 0.291318
45 1 0.423402 0.881663 0.291318
46 1 0.576598 0.118337 0.708682
47 1 0.826598 0.118337 0.791318
48 1 0.673402 0.881663 0.208682
49 2 0.122694 0.291631 0.423068
50 2 0.877306 0.708369 0.576932
51 2 0.127306 0.708369 0.923068
52 2 0.372694 0.291631 0.076932
53 2 0.877306 0.791631 0.076932
54 2 0.122694 0.208369 0.923068
55 2 0.372694 0.208369 0.576932
56 2 0.127306 0.791631 0.423068
57 2 0.622694 0.291631 0.423068
58 2 0.377306 0.708369 0.576932
59 2 0.627306 0.708369 0.923068
60 2 0.872694 0.291631 0.076932
61 2 0.377306 0.791631 0.0769319
62 2 0.622694 0.208369 0.923068
63 2 0.872694 0.208369 0.576932
64 2 0.627306 0.791631 0.423068
65 2 0.101949 0.408925 0.529769
66 2 0.898051 0.591075 0.470231
67 2 0.148051 0.591075 0.0297687
68 2 0.351949 0.408925 0.970231
69 2 0.898051 0.908925 0.970231
70 2 0.101949 0.0910753 0.0297687
71 2 0.351949 0.0910753 0.470231
72 2 0.148051 0.908925 0.529769
73 2 0.601949 0.408925 0.529769
74 2 0.398051 0.591075 0.470231
75 2 0.648051 0.591075 0.0297687
76 2 0.851949 0.408925 0.970231
77 2 0.398051 0.908925 0.970231
78 2 0.601949 0.0910753 0.0297687
79 2 0.851949 0.0910753 0.470231
80 2 0.648051 0.908925 0.529769
81 2 0.984646 0.20786 0.354549
82 2 0.015354 0.79214 0.645451
83 2 0.265354 0.79214 0.854549
84 2 0.234646 0.20786 0.145451
85 2 0.015354 0.70786 0.145451
86 2 0.984646 0.29214 0.854549
87 2 0.234646 0.29214 0.645451
88 2 0.265354 0.70786 0.354549
89 2 0.484646 0.20786 0.354549
90 2 0.515354 0.79214 0.645451
91 2 0.765354 0.79214 0.854549
92 2 0.734646 0.20786 0.145451
93 2 0.515354 0.70786 0.145451
94 2 0.484646 0.29214 0.854549
95 2 0.734646 0.29214 0.645451
96 2 0.765354 0.70786 0.354549
97 2 0.0511425 0.167554 0.318297
98 2 0.948858 0.832446 0.681703
99 2 0.198858 0.832446 0.818297
100 2 0.301142 0.167554 0.181703
101 2 0.948858 0.667554 0.181703
102 2 0.0511425 0.332446 0.818297
103 2 0.301142 0.332446 0.681703
104 2 0.198858 0.667554 0.318297
105 2 0.551142 0.167554 0.318297
106 2 0.448858 0.832446 0.681703
107 2 0.698858 0.832446 0.818297
108 2 0.801142 0.167554 0.181703
109 2 0.448858 0.667554 0.181703
110 2 0.551142 0.332446 0.818297
111 2 0.801142 0.332446 0.681703
112 2 0.698858 0.667554 0.318297
113 2 0.10457 0.314701 0.188899
114 2 0.89543 0.685299 0.811101
115 2 0.14543 0.685299 0.688899
116 2 0.35457 0.314701 0.311101
117 2 0.89543 0.814701 0.311101
118 2 0.10457 0.185299 0.688899
119 2 0.35457 0.185299 0.811101
120 2 0.14543 0.814701 0.188899
121 2 0.60457 0.314701 0.188899
122 2 0.39543 0.685299 0.811101
123 2 0.64543 0.685299 0.688899
124 2 0.85457 0.314701 0.311101
125 2 0.39543 0.814701 0.311101
126 2 0.60457 0.185299 0.688899
127 2 0.85457 0.185299 0.811101
128 2 0.64543 0.814701 0.188899
129 2 0.0723516 0.447265 0.135229
130 2 0.927648 0.552735 0.864771
131 2 0.177648 0.552735 0.635229
132 2 0.322352 0.447265 0.364771
133 2 0.927648 0.947265 0.364771
134 2 0.0723516 0.0527353 0.635229
135 2 0.322352 0.0527353 0.864771
136 2 0.177648 0.947265 0.135229
137 2 0.572352 0.447265 0.135229
138 2 0.427648 0.552735 0.864771
139 2 0.677648 0.552735 0.635229
140 2 0.822352 0.447265 0.364771
141 2 0.427648 0.947265 0.364771
142 2 0.572352 0.0527353 0.635229
143 2 0.822352 0.0527353 0.864771
144 2 0.677648 0.947265 0.135229
145 3 0.0873298 0.434018 0.333918
146 3 0.91267 0.565982 0.666082
147 3 0.16267 0.565982 0.833918
148 3 0.33733 0.434018 0.166082
149 3 0.91267 0.934018 0.166082
150 3 0.0873298 0.0659823 0.833918
151 3 0.33733 0.0659823 0.666082
152 3 0.16267 0.934018 0.333918
153 3 0.58733 0.434018 0.333918
154 3 0.41267 0.565982 0.666082
155 3 0.66267 0.565982 0.833918
156 3 0.83733 0.434018 0.166082
157 3 0.41267 0.934018 0.166082
158 3 0.58733 0.0659823 0.833918
159 3 0.83733 0.0659823 0.666082
160 3 0.66267 0.934018 0.333918
161 3 0.0464084 0.284592 0.46221
162 3 0.953592 0.715408 0.53779
163 3 0.203592 0.715408 0.96221
164 3 0.296408 0.284592 0.0377899
165 3 0.953592 0.784592 0.0377899
166 3 0.0464084 0.215408 0.96221
167 3 0.296408 0.215408 0.53779
168 3 0.203592 0.784592 0.46221
169 3 0.546408 0.284592 0.46221
170 3 0.453592 0.715408 0.53779
171 3 0.703592 0.715408 0.96221
172 3 0.796408 0.284592 0.0377899
173 3 0.453592 0.784592 0.0377899
174 3 0.546408 0.215408 0.96221
175 3 0.796408 0.215408 0.53779
176 3 0.703592 0.784592 0.46221
177 3 0.0274491 0.309971 0.219523
178 3 0.972551 0.690029 0.780477
179 3 0.222551 0.690029 0.719523
180 3 0.277449 0.309971 0.280477
181 3 0.972551 0.809971 0.280477
182 3 0.0274491 0.190029 0.719523
183 3 0.277449 0.190029 0.780477
184 3 0.222551 0.809971 0.219523
185 3 0.527449 0.309971 0.219523
186 3 0.472551 0.690029 0.780477
187 3 0.722551 0.690029 0.719523
188 3 0.777449 0.309971 0.280477
189 3 0.472551 0.809971 0.280477
190 3 0.527449 0.190029 0.719523
191 3 0.777449 0.190029 0.780477
192 3 0.722551 0.809971 0.219523
193 3 0.114844 0.545122 0.334628
194 3 0.885156 0.454879 0.665372
195 3 0.135156 0.454879 0.834628
196 3 0.364844 0.545122 0.165372
197 3 0.885156 0.0451219 0.165372
198 3 0.114844 0.954879 0.834628
199 3 0.364844 0.954879 0.665372
200 3 0.135156 0.0451215 0.334628
201 3 0.614844 0.545122 0.334628
202 3 0.385156 0.454879 0.665372
203 3 0.635156 0.454879 0.834628
204 3 0.864844 0.545122 0.165372
205 3 0.385156 0.0451219 0.165372
206 3 0.614844 0.954879 0.834628
207 3 0.864844 0.954879 0.665372
208 3 0.635156 0.0451217 0.334628
209 3 0.00602018 0.355087 0.532646
210 3 0.99398 0.644913 0.467354
211 3 0.24398 0.644913 0.0326457
212 3 0.25602 0.355087 0.967354
213 3 0.99398 0.855087 0.967354
214 3 0.00602017 0.144913 0.0326457
215 3 0.25602 0.144913 0.467354
216 3 0.24398 0.855087 0.532646
217 3 0.50602 0.355087 0.532646
218 3 0.49398 0.644913 0.467354
219 3 0.74398 0.644913 0.0326457
220 3 0.75602 0.355087 0.967354
221 3 0.49398 0.855087 0.967354
222 3 0.50602 0.144913 0.0326457
223 3 0.75602 0.144913 0.467354
224 3 0.74398 0.855087 0.532646
225 3 0.981238 0.390296 0.206534
226 3 0.0187619 0.609703 0.793466
227 3 0.268762 0.609703 0.706534
228 3 0.231238 0.390296 0.293466
229 3 0.0187619 0.890296 0.293466
230 3 0.981238 0.109703 0.706534
231 3 0.231238 0.109703 0.793466
232 3 0.268762 0.890296 0.206534
233 3 0.481238 0.390296 0.206534
234 3 0.518762 0.609704 0.793466
235 3 0.768762 0.609704 0.706534
236 3 0.731238 0.390296 0.293466
237 3 0.518762 0.890296 0.293466
238 3 0.481238 0.109704 0.706534
239 3 0.731238 0.109704 0.793466
240 3 0.768762 0.890296 0.206534
241 4 0.114742 0.602359 0.231579
242 4 0.885258 0.397641 0.768421
243 4 0.135258 0.397641 0.731579
244 4 0.364742 0.602359 0.268421
245 4 0.885258 0.102359 0.268421
246 4 0.114742 0.897641 0.731579
247 4 0.364742 0.897641 0.768421
248 4 0.135258 0.102359 0.231579
249 4 0.614742 0.602359 0.231579
250 4 0.385258 0.397641 0.768421
251 4 0.635258 0.397641 0.731579
252 4 0.864742 0.602359 0.268421
253 4 0.385258 0.102359 0.268421
254 4 0.614742 0.897641 0.731579
255 4 0.864742 0.897641 0.768421
256 4 0.635258 0.102359 0.231579
257 4 0.134833 0.575301 0.440541
258 4 0.865167 0.424699 0.559458
259 4 0.115167 0.424699 0.940542
260 4 0.384833 0.5753 0.0594589
261 4 0.865167 0.0753004 0.0594592
262 4 0.134833 0.924699 0.940542
263 4 0.384833 0.924699 0.559458
264 4 0.115167 0.0753005 0.440541
265 4 0.634833 0.575301 0.440541
266 4 0.365167 0.424699 0.559458
267 4 0.615167 0.424699 0.940542
268 4 0.884833 0.5753 0.0594592
269 4 0.365167 0.0753004 0.0594592
270 4 0.634833 0.924699 0.940542
271 4 0.884833 0.924699 0.559458
272 4 0.615167 0.0753005 0.440541
273 4 0.96074 0.314073 0.529646
274 4 0.0392603 0.685927 0.470354
275 4 0.28926 0.685927 0.0296462
276 4 0.21074 0.314073 0.970354
277 4 0.0392603 0.814073 0.970354
278 4 0.96074 0.185927 0.0296463
279 4 0.21074 0.185927 0.470354
280 4 0.28926 0.814073 0.529646
281 4 0.46074 0.314073 0.529646
282 4 0.53926 0.685927 0.470354
283 4 0.78926 0.685927 0.0296462
284 4 0.71074 0.314073 0.970354
285 4 0.53926 0.814073 0.970354
286 4 0.46074 0.185927 0.0296462
287 4 0.71074 0.185927 0.470354
288 4 0.78926 0.814073 0.529646
289 4 0.0219129 0.434122 0.607328
290 4 0.978087 0.565878 0.392672
291 4 0.228087 0.565878 0.107328
292 4 0.271913 0.434122 0.892672
293 4 0.978087 0.934122 0.892672
294 4 0.0219129 0.0658781 0.107328
295 4 0.271913 0.0658781 0.392671
296 4 0.228087 0.934122 0.607328
297 4 0.521913 0.434122 0.607329
298 4 0.478087 0.565878 0.392672
299 4 0.728087 0.565878 0.107329
300 4 0.771913 0.434122 0.892671
301 4 0.478087 0.934122 0.892672
302 4 0.521913 0.0658781 0.107329
303 4 0.771913 0.0658781 0.392671
304 4 0.728087 0.934122 0.607329
305 4 0.93913 0.353956 0.252099
306 4 0.0608696 0.646044 0.747901
307 4 0.31087 0.646044 0.752099
308 4 0.18913 0.353956 0.247901
309 4 0.0608696 0.853956 0.247901
310 4 0.93913 0.146044 0.752099
311 4 0.18913 0.146044 0.747901
312 4 0.31087 0.853956 0.252099
313 4 0.43913 0.353956 0.252099
314 4 0.56087 0.646044 0.747901
315 4 0.81087 0.646044 0.752099
316 4 0.68913 0.353956 0.247901
317 4 0.56087 0.853956 0.247901
318 4 0.43913 0.146044 0.752099
319 4 0.68913 0.146044 0.747901
320 4 0.81087 0.853956 0.252099
321 4 0.986501 0.477489 0.133328
322 4 0.0134994 0.522511 0.866672
323 4 0.263499 0.522511 0.633328
324 4 0.236501 0.477489 0.366672
325 4 0.0134994 0.977489 0.366672
326 4 0.986501 0.0225111 0.633328
327 4 0.236501 0.0225111 0.866672
328 4 0.263499 0.977489 0.133328
329 4 0.486501 0.477489 0.133328
330 4 0.513499 0.522511 0.866672
331 4 0.763499 0.522511 0.633328
332 4 0.736501 0.477489 0.366672
333 4 0.513499 0.977489 0.366672
334 4 0.486501 0.0225111 0.633328
335 4 0.736501 0.0225111 0.866672
336 4 0.763499 0.977489 0.133328
ITEM: TIMESTEP
1000
ITEM: NUMBER OF ATOMS
336
ITEM: BOX BOUNDS xy xz yz pp pp pp
-4.4690457110231563e-01 2.6956112888828876e+01 5.8995259809375249e-02
-2.1661756693434181e-01 1.1668449009886437e+01 8.6212737517291110e-02
-4.1303960310245813e-01 1.1122039236902459e+01 -1.2216891564790472e-01
ITEM: ATOMS id type xs ys zs
1 1 0.0909604 0.440077 0.436642
2 1 0.901498 0.580595 0.565881
3 1 0.148358 0.650522 0.910707
4 1 0.332472 0.3764 0.0825576
5 1 0.904835 0.891131 0.0822532
6 1 0.105309 0.119592 0.920643
7 1 0.345256 0.134606 0.583161
8 1 0.16169 0.896514 0.434141
9 1 0.587123 0.378199 0.461551
10 1 0.411326 0.579129 0.541969
11 1 0.670387 0.602898 0.930329
12 1 0.846849 0.382926 0.0511651
13 1 0.408096 0.928288 0.0777967
14 1 0.596391 0.0893048 0.940979
15 1 0.837372 0.110287 0.549127
16 1 0.652061 0.861623 0.427732
17 1 0.0423219 0.278554 0.337873
18 1 0.9609 0.729093 0.650629
19 1 0.222182 0.756176 0.821075
20 1 0.269461 0.254635 0.180617
21 1 0.969856 0.768892 0.184192
22 1 0.0320922 0.231992 0.840606
23 1 0.27347 0.243842 0.672742
24 1 0.221712 0.764157 0.329697
25 1 0.527933 0.254395 0.341458
26 1 0.46311 0.7187 0.667385
27 1 0.721982 0.730587 0.802345
28 1 0.778952 0.258734 0.133741
29 1 0.458992 0.779618 0.177358
30 1 0.536768 0.231983 0.842358
31 1 0.775917 0.230949 0.672901
32 1 0.725406 0.753072 0.322291
33 1 0.0859739 0.424995 0.217062
34 1 0.926803 0.575391 0.778041
35 1 0.168791 0.62824 0.694341
36 1 0.321213 0.384695 0.303022
37 1 0.925457 0.924236 0.297157
38 1 0.0803141 0.101363 0.707662
39 1 0.320702 0.106836 0.796903
40 1 0.178584 0.910364 0.212801
41 1 0.578107 0.407424 0.240337
42 1 0.412685 0.567354 0.768534
43 1 0.668346 0.584303 0.70408
44 1 0.837409 0.368866 0.267562
45 1 0.428853 0.951503 0.292374
46 1 0.592121 0.107427 0.72218
47 1 0.825227 0.0729167 0.76293
48 1 0.669412 0.877954 0.204213
49 2 0.120757 0.437355 0.503789
50 2 0.868 0.626536 0.532687
51 2 0.115186 0.712115 0.922495
52 2 0.36624 0.324414 0.049725
53 2 0.872402 0.843174 0.0464158
54 2 0.13128 0.191173 0.905026
55 2 0.378648 0.194533 0.578212
56 2 0.129125 0.842868 0.453648
57 2 0.617931 0.336472 0.513357
58 2 0.382913 0.613993 0.48514
59 2 0.644461 0.619823 0.00750312
60 2 0.879593 0.332104 0.0142902
61 2 0.375044 0.92686 0.0202453
62 2 0.630046 0.115865 0.999174
63 2 0.866863 0.149752 0.496826
64 2 0.623183 0.795881 0.432261
65 2 0.0712641 0.514684 0.479289
66 2 0.903968 0.512079 0.498921
67 2 0.144252 0.585273 0.979925
68 2 0.33199 0.447318 0.015758
69 2 0.906127 0.965079 0.0200705
70 2 0.121348 0.0677791 0.992541
71 2 0.349515 0.0715989 0.510525
72 2 0.159438 0.968069 0.500836
73 2 0.575879 0.443607 0.530549
74 2 0.420578 0.503349 0.48459
75 2 0.68756 0.527151 0.972669
76 2 0.849632 0.45519 0.98994
77 2 0.429719 0.00233939 0.0448254
78 2 0.586699 0.00773258 0.993355
79 2 0.826622 0.0381727 0.490443
80 2 0.645308 0.916937 0.505934
81 2 0.00397165 0.243399 0.349421
82 2 0.997209 0.757811 0.624936
83 2 0.263346 0.757717 0.842071
84 2 0.229347 0.238174 0.174398
85 2 0.00791106 0.747698 0.162119
86 2 0.993608 0.250131 0.863811
87 2 0.235374 0.260563 0.653329
88 2 0.260642 0.744208 0.349402
89 2 0.489071 0.2288 0.349933
90 2 0.501445 0.75254 0.662103
91 2 0.763172 0.740464 0.802243
92 2 0.738765 0.24859 0.129607
93 2 0.497408 0.745485 0.157858
94 2 0.495885 0.238682 0.851685
95 2 0.734891 0.24198 0.663587
96 2 0.767356 0.74898 0.330463
97 2 0.0657251 0.198862 0.321611
98 2 0.937807 0.80672 0.670387
99 2 0.207564 0.843655 0.808225
100 2 0.292797 0.174314 0.196142
101 2 0.948236 0.688843 0.204728
102 2 0.0522899 0.314993 0.816124
103 2 0.289009 0.330915 0.681869
104 2 0.205075 0.674658 0.315628
105 2 0.550007 0.179771 0.315439
106 2 0.439973 0.792853 0.676776
107 2 0.708053 0.82232 0.783942
108 2 0.798919 0.176064 0.142793
109 2 0.435914 0.706367 0.202522
110 2 0.55177 0.317211 0.831767
111 2 0.794138 0.314186 0.69323
112 2 0.712249 0.665971 0.300606
113 2 0.116479 0.37726 0.174967
114 2 0.907662 0.575788 0.863072
115 2 0.146889 0.70836 0.661369
116 2 0.344301 0.322501 0.350492
117 2 0.899554 0.89473 0.366182
118 2 0.104437 0.174489 0.672196
119 2 0.34429 0.14796 0.866768
120 2 0.151365 0.866836 0.158393
121 2 0.604814 0.379188 0.16814
122 2 0.383255 0.606881 0.825869
123 2 0.638554 0.63247 0.654408
124 2 0.864226 0.302234 0.300228
125 2 0.409766 0.950529 0.377891
126 2 0.620265 0.173718 0.696433
127 2 0.847404 0.0698653 0.84885
128 2 0.644538 0.808641 0.167429
129 2 0.0758127 0.490074 0.153469
130 2 0.949569 0.494919 0.790299
131 2 0.169224 0.57081 0.617709
132 2 0.320805 0.461297 0.365225
133 2 0.934989 0.00856029 0.341611
134 2 0.0758023 0.0443112 0.631291
135 2 0.31176 0.0238761 0.844711
136 2 0.188897 0.979903 0.145831
137 2 0.564873 0.490809 0.202383
138 2 0.418602 0.486889 0.814656
139 2 0.674476 0.502069 0.652149
140 2 0.834258 0.431162 0.338712
141 2 0.454508 0.022584 0.311406
142 2 0.593282 0.0441754 0.650821
143 2 0.811014 0.984396 0.761896
144 2 0.669061 0.939452 0.129081
145 3 0.11071 0.478521 0.320892
146 3 0.890237 0.540899 0.683759
147 3 0.14187 0.587969 0.797526
148 3 0.347536 0.423019 0.194766
149 3 0.893022 0.945463 0.195073
150 3 0.109883 0.0566045 0.805487
151 3 0.352497 0.0751841 0.69708
152 3 0.148043 0.941943 0.317625
153 3 0.606027 0.42933 0.353253
154 3 0.388363 0.538668 0.655747
155 3 0.645764 0.563712 0.819535
156 3 0.861293 0.426925 0.167402
157 3 0.392846 0.973524 0.200403
158 3 0.614012 0.0496277 0.82501
159 3 0.857285 0.0605061 0.660235
160 3 0.644427 0.922608 0.314367
161 3 0.059047 0.339681 0.447056
162 3 0.94135 0.669702 0.545454
163 3 0.194774 0.71514 0.928114
164 3 0.288472 0.300934 0.0702187
165 3 0.947508 0.808761 0.0746334
166 3 0.0594686 0.186449 0.945957
167 3 0.298365 0.198921 0.564987
168 3 0.203741 0.814703 0.442535
169 3 0.5438 0.297287 0.455824
170 3 0.450504 0.666456 0.551002
171 3 0.708012 0.692354 0.922754
172 3 0.801914 0.310401 0.0302901
173 3 0.440874 0.828406 0.0672373
174 3 0.557634 0.178648 0.949792
175 3 0.795134 0.195683 0.553984
176 3 0.70133 0.799354 0.430242
177 3 0.0442717 0.342167 0.228795
178 3 0.96486 0.666147 0.763131
179 3 0.21835 0.685312 0.71489
180 3 0.273374 0.324963 0.292045
181 3 0.968096 0.844964 0.289667
182 3 0.0329813 0.162102 0.731599
183 3 0.276902 0.186717 0.785918
184 3 0.222083 0.830731 0.221372
185 3 0.534175 0.334908 0.242026
186 3 0.456951 0.646128 0.771176
187 3 0.713977 0.659543 0.698785
188 3 0.786665 0.317441 0.247886
189 3 0.464207 0.853887 0.283813
190 3 0.545155 0.173915 0.728067
191 3 0.782449 0.155393 0.773218
192 3 0.718506 0.823264 0.213083
193 3 0.113029 0.608829 0.319401
194 3 0.885535 0.410018 0.687765
195 3 0.132766 0.458257 0.803185
196 3 0.357405 0.553602 0.190694
197 3 0.880798 0.0732711 0.184234
198 3 0.110242 0.92466 0.816071
199 3 0.360905 0.943359 0.688514
200 3 0.138469 0.0725451 0.321793
201 3 0.622693 0.554254 0.362454
202 3 0.373973 0.411984 0.645305
203 3 0.625984 0.441561 0.83442
204 3 0.865436 0.557843 0.178434
205 3 0.378179 0.0980525 0.192943
206 3 0.620833 0.917565 0.818923
207 3 0.869614 0.931916 0.640126
208 3 0.640155 0.0524419 0.323052
209 3 0.0161923 0.363236 0.532721
210 3 0.982958 0.633213 0.465865
211 3 0.229046 0.652175 0.0118
212 3 0.24633 0.349129 0.99385
213 3 0.987698 0.848062 0.986385
214 3 0.0237144 0.134454 0.0329708
215 3 0.259279 0.146601 0.484196
216 3 0.247914 0.858995 0.516359
217 3 0.500811 0.33228 0.538236
218 3 0.49747 0.63048 0.480397
219 3 0.751966 0.656886 0.00056684
220 3 0.762637 0.36318 0.949175
221 3 0.485936 0.854887 0.984391
222 3 0.516603 0.147296 0.0379947
223 3 0.752344 0.172327 0.46951
224 3 0.740978 0.861947 0.502368
225 3 0.993719 0.388855 0.193788
226 3 0.017124 0.625685 0.791873
227 3 0.262978 0.602795 0.697277
228 3 0.226581 0.397606 0.312725
229 3 0.0180275 0.898486 0.320529
230 3 0.986195 0.088414 0.718889
231 3 0.227912 0.126806 0.815175
232 3 0.271368 0.890243 0.194287
233 3 0.485183 0.397402 0.213367
234 3 0.506396 0.585773 0.796069
235 3 0.760967 0.589047 0.66923
236 3 0.743502 0.398002 0.27239
237 3 0.518473 0.887899 0.309119
238 3 0.499024 0.101898 0.699265
239 3 0.733138 0.0978058 0.804321
240 3 0.763242 0.902431 0.201584
241 4 0.107636 0.657122 0.222105
242 4 0.899045 0.358162 0.780405
243 4 0.134417 0.389397 0.717285
244 4 0.354093 0.613304 0.285221
245 4 0.874116 0.138125 0.274033
246 4 0.107129 0.861177 0.727563
247 4 0.349825 0.882175 0.774946
248 4 0.141591 0.131279 0.22961
249 4 0.621829 0.618387 0.273192
250 4 0.374476 0.352138 0.737222
251 4 0.617171 0.383258 0.742941
252 4 0.863945 0.608673 0.278303
253 4 0.375928 0.158042 0.285882
254 4 0.623887 0.858932 0.72525
255 4 0.861412 0.864896 0.726415
256 4 0.647367 0.109775 0.229199
257 4 0.121859 0.663519 0.412973
258 4 0.871981 0.357552 0.596023
259 4 0.12314 0.412432 0.902804
260 4 0.374147 0.598517 0.0985125
261 4 0.870253 0.113268 0.0835468
262 4 0.118523 0.881063 0.917527
263 4 0.384416 0.898975 0.603916
264 4 0.123064 0.119797 0.4162
265 4 0.637095 0.589343 0.463822
266 4 0.360601 0.370506 0.547232
267 4 0.621691 0.398807 0.935625
268 4 0.878054 0.614338 0.088549
269 4 0.373343 0.14202 0.0912177
270 4 0.62804 0.87001 0.917754
271 4 0.885904 0.896464 0.542541
272 4 0.630929 0.104404 0.420471
273 4 0.973354 0.323291 0.515928
274 4 0.0257316 0.683169 0.472014
275 4 0.275497 0.670775 0.0211479
276 4 0.202281 0.310937 0.00635694
277 4 0.0309205 0.804006 0.989711
278 4 0.977148 0.153952 0.0336283
279 4 0.213534 0.171552 0.498337
280 4 0.292531 0.836012 0.496901
281 4 0.457046 0.306151 0.513603
282 4 0.539995 0.645467 0.521945
283 4 0.795556 0.686599 0.974368
284 4 0.71762 0.328327 0.947348
285 4 0.527461 0.805758 0.00108758
286 4 0.471356 0.174175 0.0246628
287 4 0.710413 0.220863 0.48117
288 4 0.78624 0.829447 0.490529
289 4 0.0238472 0.423895 0.623544
290 4 0.975759 0.560968 0.380968
291 4 0.208417 0.602013 0.0985935
292 4 0.257481 0.417739 0.909919
293 4 0.975644 0.912202 0.901614
294 4 0.0419845 0.0716367 0.11425
295 4 0.272665 0.0958818 0.390149
296 4 0.23729 0.910359 0.614326
297 4 0.508793 0.384935 0.635691
298 4 0.492212 0.571666 0.388193
299 4 0.744523 0.594892 0.0889098
300 4 0.775463 0.442459 0.881957
301 4 0.481324 0.925366 0.901112
302 4 0.526017 0.0777237 0.120654
303 4 0.763616 0.124871 0.370504
304 4 0.727877 0.924454 0.589896
305 4 0.955456 0.365229 0.252341
306 4 0.0552044 0.657412 0.734222
307 4 0.306867 0.633755 0.722594
308 4 0.184432 0.376721 0.26724
309 4 0.058938 0.856842 0.290107
310 4 0.945688 0.12374 0.766801
311 4 0.187607 0.163767 0.771874
312 4 0.312418 0.866967 0.244422
313 4 0.444554 0.364549 0.257867
314 4 0.548321 0.631105 0.76735
315 4 0.804041 0.625295 0.69134
316 4 0.700384 0.384128 0.226749
317 4 0.554141 0.836767 0.259402
318 4 0.45619 0.132005 0.737487
319 4 0.692143 0.142096 0.773447
320 4 0.806626 0.860747 0.223142
321 4 0.988325 0.450999 0.102506
322 4 0.0219083 0.556041 0.875945
323 4 0.257944 0.512874 0.635138
324 4 0.228014 0.475243 0.392339
325 4 0.0165585 0.992899 0.37823
326 4 0.986745 0.00252719 0.652174
327 4 0.228616 0.051862 0.896147
328 4 0.272915 0.96121 0.111582
329 4 0.485352 0.485925 0.149777
330 4 0.508764 0.492152 0.85313
331 4 0.757555 0.491854 0.61707
332 4 0.749534 0.485504 0.338531
333 4 0.526085 0.972689 0.37675
334 4 0.502201 0.00944198 0.641505
335 4 0.734226 0.0187929 0.880322
336 4 0.759829 0.992895 0.139771
ITEM: TIMESTEP
2000
ITEM: NUMBER OF ATOMS
336
ITEM: BOX BOUNDS xy xz yz pp pp pp
-7.3928477079096211e-01 2.7013663541846181e+01 -4.3087919878846526e-02
-9.9697480120573778e-02 1.1593909835223270e+01 -4.6533629465721565e-02
-4.5183353526988057e-01 1.1160833169069905e+01 -7.9788003497282545e-02
ITEM: ATOMS id type xs ys zs
1 1 0.112342 0.364739 0.380025
2 1 0.881274 0.625349 0.597221
3 1 0.13271 0.64135 0.873405
4 1 0.344423 0.383111 0.0898581
5 1 0.903086 0.8378 0.0980296
6 1 0.108164 0.170449 0.879996
7 1 0.359851 0.128122 0.609613
8 1 0.146325 0.868374 0.397929
9 1 0.608507 0.322536 0.392744
10 1 0.394992 0.657131 0.629397
11 1 0.662688 0.639627 0.899788
12 1 0.868308 0.364478 0.111032
13 1 0.394765 0.877544 0.109536
14 1 0.610425 0.130225 0.896245
15 1 0.856099 0.132306 0.594423
16 1 0.63381 0.846144 0.389096
17 1 0.0437507 0.263531 0.282949
18 1 0.953601 0.739069 0.680722
19 1 0.210756 0.738001 0.803641
20 1 0.283559 0.279751 0.220368
21 1 0.974646 0.784832 0.232599
22 1 0.0257411 0.235244 0.809692
23 1 0.290611 0.253432 0.683612
24 1 0.214052 0.761102 0.292235
25 1 0.530736 0.258139 0.285804
26 1 0.472353 0.715205 0.732982
27 1 0.719264 0.727811 0.755164
28 1 0.786398 0.283458 0.177712
29 1 0.457493 0.756793 0.22334
30 1 0.532739 0.212447 0.812048
31 1 0.788619 0.23602 0.707983
32 1 0.711341 0.773688 0.304544
33 1 0.0840902 0.433691 0.175707
34 1 0.905732 0.603471 0.807352
35 1 0.16116 0.602793 0.673323
36 1 0.344302 0.417718 0.305573
37 1 0.906843 0.912895 0.306471
38 1 0.0819454 0.119737 0.679596
39 1 0.335785 0.115007 0.81875
40 1 0.166445 0.920539 0.18344
41 1 0.592852 0.388695 0.189853
42 1 0.405997 0.596641 0.836361
43 1 0.650368 0.587864 0.690005
44 1 0.833478 0.420179 0.305477
45 1 0.403278 0.907835 0.321729
46 1 0.589266 0.0799149 0.694962
47 1 0.840307 0.0843609 0.804408
48 1 0.651508 0.894992 0.185013
49 2 0.142824 0.304383 0.357456
50 2 0.851448 0.683639 0.599468
51 2 0.112783 0.717837 0.840382
52 2 0.378703 0.333264 0.0744035
53 2 0.880313 0.764722 0.131246
54 2 0.128126 0.247834 0.857282
55 2 0.393838 0.15852 0.572176
56 2 0.113362 0.818557 0.399568
57 2 0.633074 0.248721 0.377744
58 2 0.366277 0.720269 0.646196
59 2 0.634726 0.704893 0.92606
60 2 0.891956 0.286763 0.13175
61 2 0.361605 0.827697 0.0888801
62 2 0.632381 0.21026 0.868081
63 2 0.889356 0.182645 0.596435
64 2 0.61147 0.772355 0.370133
65 2 0.116954 0.408155 0.463662
66 2 0.871707 0.572202 0.523208
67 2 0.113239 0.616548 0.951218
68 2 0.342091 0.437663 0.012924
69 2 0.893837 0.856507 0.0061483
70 2 0.123093 0.134631 0.960691
71 2 0.355388 0.0549718 0.54868
72 2 0.143074 0.9119 0.484509
73 2 0.618599 0.360216 0.479927
74 2 0.38147 0.622707 0.546721
75 2 0.668966 0.584667 0.975298
76 2 0.887153 0.392996 0.0351507
77 2 0.397135 0.931064 0.0290179
78 2 0.632496 0.1054 0.974435
79 2 0.859992 0.0826258 0.51699
80 2 0.617833 0.870905 0.478487
81 2 0.00816781 0.219292 0.293166
82 2 0.989267 0.773151 0.656708
83 2 0.247936 0.769134 0.827835
84 2 0.246143 0.249804 0.229349
85 2 0.0136186 0.771729 0.232757
86 2 0.988664 0.233898 0.838268
87 2 0.25637 0.294003 0.66778
88 2 0.249052 0.718461 0.298737
89 2 0.493773 0.259798 0.3106
90 2 0.512068 0.715559 0.723551
91 2 0.757168 0.75464 0.744619
92 2 0.749262 0.281401 0.149364
93 2 0.496007 0.733899 0.218996
94 2 0.494513 0.222122 0.833232
95 2 0.752335 0.268529 0.694478
96 2 0.750878 0.759866 0.33096
97 2 0.0677964 0.197991 0.242303
98 2 0.938023 0.827925 0.701924
99 2 0.188395 0.80926 0.775915
100 2 0.308258 0.211722 0.252234
101 2 0.958003 0.702422 0.261992
102 2 0.035759 0.325273 0.77989
103 2 0.310842 0.329081 0.711779
104 2 0.187033 0.698422 0.255727
105 2 0.538552 0.175762 0.2476
106 2 0.466757 0.804223 0.764014
107 2 0.698476 0.80801 0.727871
108 2 0.795774 0.194425 0.210777
109 2 0.442819 0.673003 0.251867
110 2 0.547403 0.292644 0.782254
111 2 0.81103 0.305789 0.741715
112 2 0.699026 0.685998 0.274227
113 2 0.108612 0.391087 0.114705
114 2 0.881562 0.667396 0.845867
115 2 0.138276 0.679022 0.634966
116 2 0.365488 0.339009 0.325694
117 2 0.881876 0.855494 0.355646
118 2 0.100933 0.190959 0.63567
119 2 0.360016 0.171275 0.872955
120 2 0.138635 0.885933 0.123234
121 2 0.612323 0.320137 0.139579
122 2 0.384806 0.668386 0.876167
123 2 0.626622 0.656355 0.658181
124 2 0.854243 0.345929 0.342605
125 2 0.373699 0.851081 0.351338
126 2 0.61178 0.148643 0.657858
127 2 0.865269 0.154678 0.841481
128 2 0.631044 0.819104 0.148021
129 2 0.0736191 0.508895 0.127144
130 2 0.913618 0.540748 0.88053
131 2 0.162753 0.545147 0.597116
132 2 0.355374 0.478211 0.378373
133 2 0.900908 0.00144098 0.348051
134 2 0.0782806 0.0503028 0.615987
135 2 0.328379 0.0403305 0.880533
136 2 0.177227 0.00788708 0.148495
137 2 0.590895 0.464778 0.133908
138 2 0.400515 0.523757 0.895063
139 2 0.641027 0.509344 0.635262
140 2 0.830918 0.484022 0.371895
141 2 0.403975 0.971671 0.389661
142 2 0.588155 0.0104477 0.632941
143 2 0.837547 0.0133737 0.865075
144 2 0.649222 0.959886 0.110925
145 3 0.114186 0.449873 0.284326
146 3 0.879336 0.553439 0.706681
147 3 0.128432 0.565423 0.768841
148 3 0.362552 0.45426 0.193091
149 3 0.88706 0.927047 0.187646
150 3 0.116026 0.0968213 0.777394
151 3 0.369096 0.0746191 0.722839
152 3 0.141361 0.945405 0.294777
153 3 0.621854 0.405562 0.297405
154 3 0.381544 0.574155 0.72141
155 3 0.637752 0.565341 0.812215
156 3 0.869844 0.44375 0.210234
157 3 0.380808 0.952225 0.213533
158 3 0.617632 0.0486444 0.799948
159 3 0.864459 0.054134 0.693888
160 3 0.623072 0.921759 0.285184
161 3 0.068906 0.286473 0.394321
162 3 0.923492 0.701583 0.575825
163 3 0.177938 0.704281 0.90178
164 3 0.304599 0.300732 0.103024
165 3 0.95039 0.778641 0.113636
166 3 0.0575753 0.214782 0.908756
167 3 0.322293 0.219672 0.584434
168 3 0.187603 0.784186 0.402414
169 3 0.559557 0.270292 0.396289
170 3 0.44393 0.713262 0.624565
171 3 0.705485 0.719234 0.877509
172 3 0.820292 0.306745 0.0799424
173 3 0.432797 0.78707 0.111742
174 3 0.561481 0.183707 0.919103
175 3 0.814212 0.213133 0.594958
176 3 0.683046 0.792547 0.411167
177 3 0.0428249 0.351843 0.186984
178 3 0.950752 0.674937 0.792467
179 3 0.207544 0.664922 0.69867
180 3 0.294092 0.361232 0.31539
181 3 0.957324 0.864462 0.322552
182 3 0.0320202 0.165874 0.700568
183 3 0.291909 0.184056 0.792018
184 3 0.209859 0.844228 0.190862
185 3 0.542074 0.335234 0.187818
186 3 0.456214 0.644631 0.834178
187 3 0.698257 0.64474 0.667235
188 3 0.78779 0.356774 0.28372
189 3 0.449113 0.83926 0.322063
190 3 0.540712 0.136866 0.709491
191 3 0.793968 0.152979 0.803061
192 3 0.702846 0.845243 0.199448
193 3 0.109237 0.57564 0.328961
194 3 0.896106 0.429625 0.683071
195 3 0.135422 0.439047 0.803137
196 3 0.361505 0.587203 0.178565
197 3 0.885728 0.0532422 0.151172
198 3 0.117208 0.96921 0.815013
199 3 0.367892 0.94291 0.714588
200 3 0.144108 0.0761834 0.324063
201 3 0.616153 0.530782 0.335879
202 3 0.392079 0.450585 0.674755
203 3 0.643202 0.437155 0.843793
204 3 0.868668 0.570765 0.16744
205 3 0.39658 0.0771515 0.19418
206 3 0.606125 0.922669 0.841983
207 3 0.855431 0.925312 0.666711
208 3 0.628183 0.0540846 0.318156
209 3 0.0304916 0.332845 0.480015
210 3 0.954574 0.639222 0.487398
211 3 0.206025 0.637384 0.997081
212 3 0.262523 0.324941 0.0143305
213 3 0.985736 0.809277 0.0176866
214 3 0.0339902 0.135059 0.999876
215 3 0.2913 0.162672 0.489292
216 3 0.223615 0.828802 0.495429
217 3 0.527991 0.310132 0.500102
218 3 0.476519 0.656982 0.529859
219 3 0.749184 0.68778 0.954127