LAMMPS data file via write_data, version 15 Apr 2020, timestep = 80000

336 atoms
4 atom types

1.7735507729190303e-02 2.6346264812670377e+01 xlo xhi
9.8346414626290013e-02 1.1475653943973260e+01 ylo yhi
-1.2839578642687757e+00 1.1992957498068924e+01 zlo zhi
7.7821959215593950e-01 -8.3677828374107768e-02 8.1099333983885147e-01 xy xz yz

Masses

1 12.0107
2 1.00794
3 14.0067
4 15.9994

Atoms # full

1 1 1 -2.5466245871563244e-02 2.7486753321348680e+00 3.7959792033564952e+00 4.8974975393062161e+00 0 0 0
2 1 1 -3.7469980271181688e-02 2.5088974303585879e+01 9.7730485102617219e+00 5.4726764387053599e+00 0 0 0
3 1 1 -3.0787483233333870e-02 4.6157401151623407e+00 9.7414332515348327e+00 1.0866930067674204e+01 0 0 0
4 1 1 -3.4952551565638743e-02 8.1787653465356325e+00 2.5153772714119347e+00 -6.9197589520968206e-01 0 0 0
5 1 1 -4.1615561092039483e-02 2.5645984702542901e+01 7.6167175577341872e+00 -8.2650706517802797e-01 0 0 0
6 1 1 -3.4499971230799259e-02 3.6416554975356790e+00 3.5176601085489678e+00 1.0274534175296221e+01 0 0 0
7 1 1 -3.6441835885530169e-02 8.3601446928971939e+00 4.3271220374184427e+00 5.9457503919157055e+00 0 0 0
8 1 1 -3.8670667314570084e-02 5.3380026661856146e+00 8.8655904616385541e+00 4.8661379152517750e+00 0 0 0
9 1 1 -3.1851600312908415e-02 1.6239496112564105e+01 3.9519209834546793e+00 3.1573273377166773e+00 0 0 0
10 1 1 -2.7093403059112005e-02 1.0772145735557730e+01 9.4034045043551551e+00 7.0568990552525319e+00 0 0 0
11 1 1 -4.2097619220119023e-02 1.7911482220057852e+01 8.8124319492598513e+00 8.9127696953305673e+00 0 0 0
12 1 1 -4.0449687247161845e-02 2.1494594543279220e+01 1.7697303995579816e+00 -4.4679945457538917e-01 0 0 0
13 1 1 -4.1784779205787478e-02 1.2404290977840921e+01 7.7702237929201186e+00 -9.7303895809862206e-02 0 0 0
14 1 1 -3.4687786040666760e-02 1.4737731906566701e+01 4.0391849793522576e+00 1.1433740102598847e+01 0 0 0
15 1 1 -3.2902739293177809e-02 2.2038933363526152e+01 4.1466985861841357e+00 6.6831760623011718e+00 0 0 0
16 1 1 -4.5034656625867919e-02 1.7361041897552742e+01 9.8249195955623723e+00 4.0874137839600451e+00 0 0 0
17 1 1 -3.7831463366151036e-02 8.7461098305923868e-01 2.7526342316272867e+00 3.4432318782845579e+00 0 0 0
18 1 1 -3.1073744023329200e-02 2.5873685437221912e+01 9.4984976173270539e+00 7.8619313307176304e+00 0 0 0
19 1 1 -3.6556041317957609e-02 6.6283947414648292e+00 1.0143812115241285e+01 9.3860588105145375e+00 0 0 0
20 1 1 -3.6729606710377526e-02 7.4545274392687411e+00 3.1950316416291633e+00 1.6760662407758780e+00 0 0 0
21 1 1 -4.0173846051152984e-02 2.6614339058038599e+01 8.6259788000764139e+00 1.2321351847996778e+00 0 0 0
22 1 1 -4.0514768312499602e-02 1.6537966835396944e+00 4.5262843311435494e+00 1.1519842387289710e+01 0 0 0
23 1 1 -4.5852403866703570e-02 7.5559940256584301e+00 4.1834047543693300e+00 8.3407059718286938e+00 0 0 0
24 1 1 -3.3400519820733839e-02 6.7808272179552542e+00 8.7117943440658845e+00 2.7348271380788276e+00 0 0 0
25 1 1 -4.1484646752286074e-02 1.4923933933901985e+01 3.0194252470972573e+00 5.1542842376817983e+00 0 0 0
26 1 1 -3.2289053377406236e-02 1.2703349048967016e+01 9.9554639034394157e+00 8.7365312909220627e+00 0 0 0
27 1 1 -3.7196042731820547e-02 1.7587543726002995e+01 8.8872094554196188e+00 1.1432889926036214e+01 0 0 0
28 1 1 -3.8086435131386827e-02 2.0188251939902525e+01 2.2108622486470568e+00 1.7040362014250463e+00 0 0 0
29 1 1 -3.8591429162997827e-02 1.3425286930794993e+01 7.9345932218452440e+00 2.2020566553932888e+00 0 0 0
30 1 1 -3.7470752266495558e-02 1.4221698940507396e+01 3.9014786951956322e+00 8.9826107876872037e+00 0 0 0
31 1 1 -3.7172071503618641e-02 2.0175167154991730e+01 3.7763655851634303e+00 8.4272968081728052e+00 0 0 0
32 1 1 -4.6773454307017889e-02 1.9479940410653189e+01 8.4660932758137140e+00 4.1447470863655616e+00 0 0 0
33 1 1 -3.8508929468712788e-02 2.8013372206029086e+00 3.9402702334863577e+00 2.3272202169170431e+00 0 0 0
34 1 1 -4.1158425467911548e-02 2.3740773100125448e+01 8.3525447786817466e+00 7.1514068807371833e+00 0 0 0
35 1 1 -3.9474444215694821e-02 4.6313581612679640e+00 9.0298000626816108e+00 8.3848969592862375e+00 0 0 0
36 1 1 -3.6905849988638731e-02 9.9028885850121231e+00 3.2918888937171729e+00 1.0505052493245155e+00 0 0 0
37 1 1 -3.2571676890510312e-02 2.4161746714463892e+01 8.7234143547297105e+00 8.2856848023519358e-01 0 0 0
38 1 1 -3.1496435197473291e-02 1.4470906804712271e+00 4.0530518306542458e+00 9.0408566869379960e+00 0 0 0
39 1 1 -3.1913670543427489e-02 9.5793385255393808e+00 2.8462216690460247e+00 7.6213533352403866e+00 0 0 0
40 1 1 -4.1669079546577378e-02 4.6623553553963601e+00 1.0078155955733124e+01 2.6280873179192312e+00 0 0 0
41 1 1 -3.5735163842519853e-02 1.4151572308941647e+01 2.5178631628240815e+00 2.7715447396028514e+00 0 0 0
42 1 1 -3.9388518492034882e-02 1.0872781365352518e+01 8.2363363304983253e+00 9.3364967034463611e+00 0 0 0
43 1 1 -3.0864262861541959e-02 1.9814142275833088e+01 9.5926346154139726e+00 1.0494272232157972e+01 0 0 0
44 1 1 -3.7225213049549302e-02 2.2525455754570970e+01 3.2435791516028325e+00 1.4762746061783925e+00 0 0 0
45 1 1 -3.7196113026628591e-02 1.1301388649304887e+01 9.2370800898219834e+00 1.7450176615208912e+00 0 0 0
46 1 1 -4.0698692187530139e-02 1.6237196665538917e+01 2.7317007256099544e+00 9.8187479166755196e+00 0 0 0
47 1 1 -4.3062734034136657e-02 2.2468495159483329e+01 2.7773497126076307e+00 8.7041174739259759e+00 0 0 0
48 1 1 -4.0582647086607776e-02 1.8329793574033680e+01 8.9544686350631668e+00 1.9473058120072495e+00 0 0 0
49 1 2 1.4411014942721675e-01 3.3621117236755866e+00 2.9915598030180091e+00 5.3064618984481253e+00 0 0 0
50 1 2 1.3695717046423908e-01 2.4527857143302629e+01 1.0748938769320107e+01 5.3558856703835307e+00 0 0 0
51 1 2 1.4938168269576851e-01 4.0577119362318816e+00 1.0671484649047349e+01 1.1006561807768772e+01 0 0 0
52 1 2 1.4061682377126256e-01 8.2866757383910326e+00 1.3981038602967559e+00 -7.2795587653849181e-01 0 0 0
53 1 2 1.3140535072417869e-01 2.5433864200445594e+01 6.5920741936291281e+00 -5.3599866015832387e-01 0 0 0
54 1 2 1.3975442175173466e-01 4.3104280684282568e+00 4.3510621747461222e+00 1.0015662354841741e+01 0 0 0
55 1 2 1.3108963155316691e-01 9.0915557963231990e+00 5.1035506974576368e+00 6.2303928208141386e+00 0 0 0
56 1 2 1.3425823855905328e-01 4.7123375663981601e+00 7.9606127420492436e+00 4.9954878113905927e+00 0 0 0
57 1 2 1.3951644185096745e-01 1.7126705780893186e+01 3.2821375817921838e+00 2.9424041870420643e+00 0 0 0
58 1 2 1.2887497573941209e-01 1.0197519874693917e+01 1.0297460752342085e+01 7.5057581160493099e+00 0 0 0
59 1 2 1.3206799247927162e-01 1.7458206189576551e+01 9.7129242177750683e+00 8.5132971647909699e+00 0 0 0
60 1 2 1.3625890498915075e-01 2.1968281382059789e+01 8.3109403579389229e-01 -1.3722029094112242e-01 0 0 0
61 1 2 1.3314149202223344e-01 1.1918135372721228e+01 6.8044875314295679e+00 7.6160842718999922e-02 0 0 0
62 1 2 1.3792160175191792e-01 1.5170140550019921e+01 5.0444086179495962e+00 1.1528251417581075e+01 0 0 0
63 1 2 1.2606770935333747e-01 2.2504064431277751e+01 5.1245328366727101e+00 7.0365528175428222e+00 0 0 0
64 1 2 1.2981942832317256e-01 1.6606002238454803e+01 9.0844720362076465e+00 4.2586907191434884e+00 0 0 0
65 1 2 1.4763590245518468e-01 2.8460938950946435e+00 4.5302341609034995e+00 5.7407634814202027e+00 0 0 0
66 1 2 1.3693685270488806e-01 2.5578066966226384e+01 9.5095987118894385e+00 4.4912229762323612e+00 0 0 0
67 1 2 1.4206234212443639e-01 4.4526201669203491e+00 9.3027356163926207e+00 1.1903565272919579e+01 0 0 -1
68 1 2 1.4321290010690399e-01 7.9179922997412087e+00 3.5767257163977471e+00 1.1550458721819503e+01 0 0 0
69 1 2 1.3202673812276267e-01 2.5636522836462660e+01 8.3757751086052252e+00 1.1356250803634133e+01 0 0 0
70 1 2 1.4575395123686263e-01 4.2977652384890108e+00 2.6880339744061166e+00 1.0497366604904201e+01 0 0 -1
71 1 2 1.4029602236301431e-01 8.1808981312265132e+00 4.5639997257791940e+00 4.8608497591976771e+00 0 0 0
72 1 2 1.3338764960576580e-01 5.5759021267428110e+00 9.1949198680473359e+00 5.8720102063109749e+00 0 0 0
73 1 2 1.4231397657671338e-01 1.6628781907988770e+01 4.9491526254843770e+00 2.7921655014845879e+00 0 0 0
74 1 2 1.6094572045648731e-01 1.0501481775924397e+01 9.2166264429327374e+00 5.9471085599060221e+00 0 0 0
75 1 2 1.4204049503591959e-01 1.7723951981092693e+01 8.0675340836319016e+00 8.1476980970349864e+00 0 0 -1
76 1 2 1.2931650994240815e-01 2.1180330214825297e+01 2.6308403121409381e+00 1.1718911653417901e+01 0 0 0
77 1 2 1.3148566550213148e-01 1.2556876291688551e+01 7.6327906323392130e+00 -1.1536988415703926e+00 0 0 1
78 1 2 1.3909617695218204e-01 1.4393228592073140e+01 3.0534642498880209e+00 -7.8515061563775634e-01 0 0 0
79 1 2 1.4795504118803135e-01 2.2131299525375617e+01 4.0620996800616300e+00 5.5701551993076155e+00 0 0 0
80 1 2 1.3832631975861878e-01 1.7048274018545772e+01 1.0798419394765412e+01 4.5069038643739221e+00 0 0 0
81 1 2 1.3577136122431388e-01 2.6103434788119475e+01 2.7664693010285202e+00 3.4730533282846174e+00 0 0 0
82 1 2 1.4401535333464494e-01 2.6765016331265656e+01 9.3355626379971053e+00 8.5169043763254706e+00 -1 0 0
83 1 2 1.3649724273314953e-01 7.7718004219818315e+00 1.0026848813528721e+01 9.4303994552062314e+00 0 0 0
84 1 2 1.3944806216710315e-01 6.7739044286072918e+00 3.8888598427543291e+00 2.2407871681539686e+00 0 0 0
85 1 2 1.3482006625137163e-01 1.0079157908575691e+00 9.3966833990508700e+00 1.5254074520254743e+00 0 0 0
86 1 2 1.4023858151480031e-01 1.0827504974064881e+00 3.5060427164764114e+00 -8.9874102432540393e-01 1 0 1
87 1 2 1.3006004125293330e-01 6.7079942527477101e+00 4.0537361440765292e+00 8.9823007683575007e+00 0 0 0
88 1 2 1.3806133206228069e-01 7.9082033169832151e+00 8.7836369848000881e+00 2.5043050789544457e+00 0 0 0
89 1 2 1.3468011175862141e-01 1.4411162584046870e+01 3.4496731166605739e+00 5.9984171049353829e+00 0 0 0
90 1 2 1.4786361480758115e-01 1.3797743685075950e+01 1.0134809776697040e+01 8.6317890290093686e+00 0 0 0
91 1 2 1.4099059235590364e-01 1.7248719166350149e+01 7.4815278656814197e+00 -1.0058666955206910e+00 0 0 1
92 1 2 1.4276983019897399e-01 1.9195039316248174e+01 2.6060175418570002e+00 1.8757480322660949e+00 0 0 0
93 1 2 1.3790458507015521e-01 1.4329410077006431e+01 7.9233121803265476e+00 2.8148955269392308e+00 0 0 0
94 1 2 1.4064676409484386e-01 1.3414165919094101e+01 3.8378351350046147e+00 8.2381222409728778e+00 0 0 0
95 1 2 1.3189806614796856e-01 1.9108291153892562e+01 3.4916629963742398e+00 8.3710802031917204e+00 0 0 0
96 1 2 1.3075215728636544e-01 2.0459893508129429e+01 8.5169305239647262e+00 4.7332142634083194e+00 0 0 0
97 1 2 1.3243505843004544e-01 1.0020378457495298e+00 1.7155490648893754e+00 3.3456924313531609e+00 0 0 0
98 1 2 1.3914796588551276e-01 2.5316015003673723e+01 1.0414819368180728e+01 8.2519099381878149e+00 0 0 0
99 1 2 1.3033804240429558e-01 6.5576225462996778e+00 1.1196146400364174e+01 9.0826852203494397e+00 0 0 0
100 1 2 1.4047077027853488e-01 7.3815341948443258e+00 2.2811764811152417e+00 2.2611178688403299e+00 0 0 0
101 1 2 1.3541475880278420e-01 2.6821718891838966e+01 7.7859908103430273e+00 1.9289780024284728e+00 0 0 0
102 1 2 1.3350527074978896e-01 1.8872535811566773e+00 5.6384304225430855e+00 1.1469755220711559e+01 0 0 0
103 1 2 1.3446376174402655e-01 7.9430691963582660e+00 5.1083039193512318e+00 8.7611670842264679e+00 0 0 0
104 1 2 1.3482528403836713e-01 6.4723568614141600e+00 7.7469087441289393e+00 2.2492026089948949e+00 0 0 0
105 1 2 1.2725434341832198e-01 1.5382256506623277e+01 2.0636104996418378e+00 5.5355820374329490e+00 0 0 0
106 1 2 1.3542455773439541e-01 1.2298896870603514e+01 1.0868978019086107e+01 9.1997666903214785e+00 0 0 0
107 1 2 1.4553670101674238e-01 1.7035919549516532e+01 9.7976049779363503e+00 1.1538804611321584e+01 0 0 0
108 1 2 1.2900448976505008e-01 2.0287453221003243e+01 1.3836752271389048e+00 2.4985290566786627e+00 0 0 0
109 1 2 1.2384677361667130e-01 1.2911268758188365e+01 6.9795628575150817e+00 2.6519334887430475e+00 0 0 0
110 1 2 1.3674714881776509e-01 1.4753362939083688e+01 4.9016156584845314e+00 8.8336977009699318e+00 0 0 0
111 1 2 1.3025875329977818e-01 2.0233911185743242e+01 4.6815555734813818e+00 9.1036677471274245e+00 0 0 0
112 1 2 1.1984334750127040e-01 1.9071581343650372e+01 7.4505154053787788e+00 4.2267317474629191e+00 0 0 0
113 1 2 1.2758474475184564e-01 3.4534566761077317e+00 3.0585078699538784e+00 2.1189108270387611e+00 0 0 0
114 1 2 1.3087742262495089e-01 2.2997557399721980e+01 9.0457211490431408e+00 7.5907946196604881e+00 0 0 0
115 1 2 1.4079176562487486e-01 4.1435001267347742e+00 9.9660608749204052e+00 7.9973610987026360e+00 0 0 0
116 1 2 1.3168380782261899e-01 1.0217562196669228e+01 2.3235234547305645e+00 1.4549328761815237e+00 0 0 0
117 1 2 1.4452169053328873e-01 2.3640105393180757e+01 7.8394247471301011e+00 1.3331719740479966e+00 0 0 0
118 1 2 1.4080242477577801e-01 1.7001646198085298e+00 5.0296802442892217e+00 8.5537962460094654e+00 0 0 0
119 1 2 1.4165002430512771e-01 1.0330603397370302e+01 3.6618341586460827e+00 7.7983742709435786e+00 0 0 0
120 1 2 1.2074289506754210e-01 3.7814143104549975e+00 9.5079728646992052e+00 2.1127731598766948e+00 0 0 0
121 1 2 1.4484366192237547e-01 1.4568864109696056e+01 1.5692248599416858e+00 2.3988414405689378e+00 0 0 0
122 1 2 1.2895772369893582e-01 1.0178254269131754e+01 8.9254622793453553e+00 9.8587162278760871e+00 0 0 0
123 1 2 1.3073474613503713e-01 1.9854024559689645e+01 1.0703079064381940e+01 1.0521443781121672e+01 0 0 0
124 1 2 1.2796576698618795e-01 2.3185404755234966e+01 2.6605380541846264e+00 2.0252071014419886e+00 0 0 0
125 1 2 1.3103887124443603e-01 1.0494193571099059e+01 8.6572552637777722e+00 2.2731500974957459e+00 0 0 0
126 1 2 1.2415654812473625e-01 1.7029525973317259e+01 3.5060983508917452e+00 9.6540148876102840e+00 0 0 0
127 1 2 1.2919976899534064e-01 2.2991925523189966e+01 3.5108760907784347e+00 9.3328175981450485e+00 0 0 0
128 1 2 1.2971739469132637e-01 1.7813503177182277e+01 7.9682579502592406e+00 1.8400651635627199e+00 0 0 0
129 1 2 1.3951452023532290e-01 3.0631251403800217e+00 4.5209360113639629e+00 1.4245989502274443e+00 0 0 0
130 1 2 1.3488286448527814e-01 2.3294950027515849e+01 7.3613978352908447e+00 7.2355107928066671e+00 0 0 0
131 1 2 1.3691264181848856e-01 4.3267616892980030e+00 8.1820255810810103e+00 7.7645568460949344e+00 0 0 0
132 1 2 1.4569740182964308e-01 1.0760515955025872e+01 3.9764131935932334e+00 1.1171095179571222e+00 0 0 0
133 1 2 1.5064672400620613e-01 2.3478781463199144e+01 9.5544667183904011e+00 8.1490818490016625e-01 0 0 0
134 1 2 1.4657811842148619e-01 8.4190820836713010e-01 3.5083440214722428e+00 8.2915605692005983e+00 0 0 0
135 1 2 1.3839792176298990e-01 1.0182340607407694e+01 1.9087446657125056e+00 7.6558704485167164e+00 0 0 0
136 1 2 1.3585230976992049e-01 4.3280569645337907e+00 1.1108763921647997e+01 2.3512846839762784e+00 0 0 0
137 1 2 1.4003749638524746e-01 1.3241630842396706e+01 2.5597015117359243e+00 2.1819809908972601e+00 0 0 0
138 1 2 1.4760137471652185e-01 1.0489590936041679e+01 7.2542271492191599e+00 9.7694320877249332e+00 0 0 0
139 1 2 1.5064407748613071e-01 2.0928049861922243e+01 9.3193371542504959e+00 1.0595678727910880e+01 0 0 0
140 1 2 1.4705870405787472e-01 2.3001137656325795e+01 4.2677759620408509e+00 1.6167904604949941e+00 0 0 0
141 1 2 1.4136287842545397e-01 1.0952078554285462e+01 1.0268217928289266e+01 1.9163954925046291e+00 0 0 0
142 1 2 1.3969503337118958e-01 1.6890050961312767e+01 1.8743251237103098e+00 9.7866075740128053e+00 0 0 0
143 1 2 1.4093643276790557e-01 2.2943665464640258e+01 1.8039096073173271e+00 9.0399199984787941e+00 0 0 0
144 1 2 1.3670379514426301e-01 1.8441652833444479e+01 9.3388239701691838e+00 9.0136252661886607e-01 0 0 0
145 1 3 3.4488144356826900e-02 3.4076535325172510e+00 4.3451986156585214e+00 3.6514675333515152e+00 0 0 0
146 1 3 2.4018950260459276e-02 2.4015796694620242e+01 8.7327954256892824e+00 5.7198249336289759e+00 0 0 0
147 1 3 3.4500497028417544e-02 3.9909475733135613e+00 8.9313834314633080e+00 9.7978842741751144e+00 0 0 0
148 1 3 3.8538426255868313e-02 9.5639242362880417e+00 3.0574741645757499e+00 -3.7109979780124791e-01 0 0 0
149 1 3 3.4420371491937607e-02 2.4266940485397619e+01 8.1716927145708969e+00 -5.4569001895825653e-01 0 0 0
150 1 3 2.6851316461449171e-02 2.7744296744503210e+00 3.3009946095629874e+00 9.0851594878606861e+00 0 0 0
151 1 3 3.5266279151749909e-02 9.2653239750114338e+00 3.1444423522691900e+00 6.1794427749134320e+00 0 0 0
152 1 3 2.8558304994911125e-02 4.4547763553114041e+00 9.8490911336996447e+00 4.1503696918748947e+00 0 0 0
153 1 3 2.6761222991235845e-02 1.5206097052787602e+01 3.4140824311747928e+00 2.2011095884605396e+00 0 0 0
154 1 3 3.1790745951461981e-02 1.0403170924994173e+01 8.2020647738013110e+00 7.8790479869219530e+00 0 0 0
155 1 3 3.2373149869252674e-02 1.9376530988352151e+01 9.1651258829829061e+00 9.1240381533008978e+00 0 0 0
156 1 3 3.3621677037643405e-02 2.2478162653486713e+01 2.8135484095009842e+00 1.2855738505411551e-02 0 0 0
157 1 3 3.3236098783975994e-02 1.1417347493983057e+01 8.7706480087880863e+00 2.9141926867160639e-01 0 0 0
158 1 3 4.4209434221320003e-02 1.5829722021367060e+01 2.9915008190912964e+00 1.1259565385236979e+01 0 0 0
159 1 3 3.5803566226297968e-02 2.2885426870817223e+01 3.1198860879641015e+00 7.3355834451635458e+00 0 0 0
160 1 3 3.5484832552786685e-02 1.7395611856117515e+01 9.9209761579350122e+00 2.5775116687849318e+00 0 0 0
161 1 3 3.5027123251042548e-02 1.4339575038681254e+00 3.1154786679552129e+00 4.7915087565809937e+00 0 0 0
162 1 3 3.5644146893221887e-02 2.6201231636935802e+01 9.9229883550008289e+00 6.4685353222128903e+00 0 0 0
163 1 3 3.4293568319671994e-02 6.0444014554499965e+00 1.0167518210129485e+01 1.0744641898646009e+01 0 0 0
164 1 3 3.5824012443015939e-02 7.0712951250938456e+00 2.8023113031649496e+00 2.8157286096611656e-01 0 0 0
165 1 3 3.1106012001294960e-02 2.6862502380125161e+01 8.1846924282632827e+00 -1.9071153995650603e-01 0 0 0
166 1 3 3.5418147563882944e-02 3.0104145337089907e+00 3.8922895154507304e+00 1.1593365496109659e+01 0 0 0
167 1 3 3.5775951730713088e-02 7.2779028021704102e+00 4.5841102345115452e+00 6.9009594250582387e+00 0 0 0
168 1 3 2.4349930444746645e-02 6.6433959188207456e+00 8.4473899604400451e+00 4.1779351021596689e+00 0 0 0
169 1 3 3.6810260594527654e-02 1.5916176674849424e+01 3.9736162469369605e+00 4.6268440677663429e+00 0 0 0
170 1 3 2.2020789604081485e-02 1.2140847139414305e+01 9.9881147318530346e+00 7.3279412958704873e+00 0 0 0
171 1 3 3.9833291721532472e-02 1.7110125306815725e+01 8.3982119156039179e+00 1.0101993167902243e+01 0 0 0
172 1 3 2.8485851876629099e-02 2.0196439501275737e+01 1.7364919117875786e+00 2.8743411332118418e-01 0 0 0
173 1 3 3.3699413458595784e-02 1.3647772225681807e+01 7.5962064177560435e+00 7.6974092219765966e-01 0 0 0
174 1 3 4.3325622374274689e-02 1.3690420793287773e+01 4.1168350636168487e+00 1.0363701308837225e+01 0 0 0
175 1 3 2.5481231887507012e-02 2.0571881817605313e+01 4.2735916401259519e+00 7.0844363966839277e+00 0 0 0
176 1 3 1.4043600043204568e-02 1.8545156921644399e+01 9.3808749685117583e+00 4.8795543746486434e+00 0 0 0
177 1 3 3.1127108991232909e-02 1.4173962158023319e+00 3.4261332728625362e+00 2.2167573089165398e+00 0 0 0
178 1 3 2.4209445423515746e-02 2.4878930978059561e+01 8.4274317921368578e+00 8.1440029413343993e+00 0 0 0
179 1 3 2.7288346108328101e-02 6.0668258716004102e+00 9.3232955602383409e+00 8.2354210458074277e+00 0 0 0
180 1 3 2.2344420238769851e-02 8.8283987364018994e+00 3.6632788529748233e+00 2.0242684887350424e+00 0 0 0
181 1 3 2.8652640004179789e-02 2.5299497530966342e+01 9.1742049146226190e+00 1.6849137531844849e+00 0 0 0
182 1 3 3.2405551503543135e-02 7.5810105779025927e-01 4.4283325606861474e+00 1.0323917817890869e+01 0 0 0
183 1 3 2.8297966298593831e-02 8.5760616609371922e+00 3.1800426493572216e+00 8.6992955457758896e+00 0 0 0
184 1 3 3.4549473125779176e-02 6.0038789447536436e+00 9.7824536815872190e+00 2.0662629748653072e+00 0 0 0
185 1 3 2.3816428312048152e-02 1.3852883321949502e+01 2.4434410817901231e+00 4.2216590103071230e+00 0 0 0
186 1 3 3.6814899038971963e-02 1.2224988284433591e+01 8.8078436491912839e+00 9.6052009156548159e+00 0 0 0
187 1 3 2.2152958785488584e-02 1.9036742939389672e+01 9.2017500651089197e+00 1.1697861075804422e+01 0 0 0
188 1 3 3.5787331645427335e-02 2.1187192384708986e+01 3.1963833669975648e+00 2.2052048802070185e+00 0 0 0
189 1 3 4.2615239915879267e-02 1.2533691178723917e+01 9.0851879385920853e+00 2.5567532490766043e+00 0 0 0
190 1 3 1.5596998039544601e-02 1.5278268389801942e+01 2.8823421260613347e+00 8.6844316765064029e+00 0 0 0
191 1 3 2.1415436063869427e-02 2.1031298139815402e+01 2.7518556226035882e+00 9.1270211879088414e+00 0 0 0
192 1 3 2.9241073500366643e-02 1.9609665111450251e+01 8.6328017219309956e+00 2.6657558524552964e+00 0 0 0
193 1 3 2.2915497958711528e-01 3.2767425835664272e+00 5.8913571621863587e+00 3.7318364748378610e+00 0 0 0
194 1 3 2.4584072274418645e-01 2.4147435896305261e+01 7.4693522330578128e+00 4.8565756542917589e+00 0 0 0
195 1 3 2.3060511252598165e-01 3.7694995928719242e+00 7.4940458244437451e+00 1.0267770020909609e+01 0 0 0
196 1 3 2.4097760128066048e-01 9.7031475748169065e+00 4.3756819474794142e+00 -1.1783027528713907e+00 0 0 0
197 1 3 2.3941933124658293e-01 2.3791576421523189e+01 1.0121137677584320e+01 1.1731134285589956e+01 0 -1 -1
198 1 3 2.3828546555283234e-01 2.5281075598567058e+00 1.7726385288576458e+00 8.9918551424516266e+00 0 1 0
199 1 3 2.4571548631593818e-01 8.7814491322755810e+00 1.8401563721822232e+00 5.4856735009434008e+00 0 1 0
200 1 3 2.3489869393186774e-01 4.3557492549786554e+00 1.1178031191288820e+01 4.8523241855578734e+00 0 -1 0
201 1 3 2.1351728551709773e-01 1.4575812509570980e+01 4.5969252428615333e+00 1.4258087884169588e+00 0 0 0
202 1 3 2.3759482622999814e-01 1.0713260359313283e+01 6.8534220905123311e+00 7.1944719139024320e+00 0 0 0
203 1 3 2.2707261595365177e-01 2.0226715525117463e+01 8.0154770986738129e+00 8.5566156155474253e+00 0 0 0
204 1 3 2.4547990532469421e-01 2.2487746551731803e+01 4.0395397901237899e+00 -9.3285393372126957e-01 0 0 0
205 1 3 2.5337597150281888e-01 1.1356165725815748e+01 9.9542537841194854e+00 -7.4343580871909665e-01 0 -1 0
206 1 3 2.5387520409951692e-01 1.5556721903644501e+01 1.6344360950843928e+00 1.1941937576035638e+01 0 1 0
207 1 3 2.4452228896169573e-01 2.3118615861722155e+01 1.8121129542800647e+00 6.4416170482240975e+00 0 1 0
208 1 3 2.3147440055402160e-01 1.7767921563620700e+01 1.1364817450911721e+01 2.1730952551280716e+00 0 -1 0
209 1 3 2.3980838518668229e-01 3.6783199530631439e-01 4.0598436516825771e+00 5.4140245873210651e+00 0 0 0
210 1 3 2.4018021915826751e-01 1.1407413753561708e+00 9.2617269597323553e+00 5.9022415320105699e+00 1 0 0
211 1 3 2.4327464210521510e-01 6.9749077268931892e+00 9.3769840746705189e+00 1.1682599325464537e+01 0 0 -1
212 1 3 2.3961952533545122e-01 6.0384650291176643e+00 3.8146200672722412e+00 -3.2627168651048777e-01 0 0 1
213 1 3 2.3677671670239578e-01 1.3136524929657503e+00 9.2115816881789598e+00 -1.0403158933368117e+00 1 0 1
214 1 3 2.3601351400518028e-01 3.0589079398099104e+00 1.8546676743085349e+00 -7.5286248793010968e-01 0 0 0
215 1 3 2.4047129921693400e-01 5.9536095274313903e+00 3.9461392356001999e+00 6.3274699716624756e+00 0 0 0
216 1 3 2.3512369302127842e-01 7.8800654483148458e+00 9.0024694211838199e+00 4.9121979080639759e+00 0 0 0
217 1 3 2.3899669051531058e-01 1.5592250657064721e+01 5.4328802544437798e+00 5.1169972729311510e+00 0 0 0
218 1 3 2.4710225337326480e-01 1.3201502758723269e+01 9.5345108223069666e+00 6.3191365885697266e+00 0 0 0
219 1 3 2.3603197492886752e-01 1.7073374222170720e+01 6.8403436952990271e+00 1.0067275058933681e+01 0 0 -1
220 1 3 2.4218223700387836e-01 1.9064261896267457e+01 2.4429636039751434e+00 -5.1811196771819390e-01 0 0 1
221 1 3 2.3964508935060469e-01 1.4816285689103495e+01 8.4202656970537610e+00 1.4815071133232682e-01 0 0 1
222 1 3 2.4802229341724324e-01 1.2464402424224179e+01 3.1969190645093275e+00 1.0592573137543571e+01 0 0 -1
223 1 3 2.3985331683602620e-01 1.9703922575035506e+01 3.6453943318505493e+00 5.9721592820745757e+00 0 0 0
224 1 3 2.2792749958761191e-01 1.9273375376466483e+01 1.0624539134052638e+01 5.4859952476278098e+00 0 0 0
225 1 3 2.2855761596837684e-01 4.9386522735095090e-01 4.5654774775189129e+00 1.6863488706034335e+00 1 0 0
226 1 3 2.3189490670987087e-01 2.5534616704127384e+01 7.0472703371895484e+00 8.4028567239251295e+00 -1 0 0
227 1 3 2.3085203565407700e-01 6.8128324230533126e+00 7.9764668290146359e+00 8.1151731550082218e+00 0 0 0
228 1 3 2.3062092594437436e-01 8.8209518480519158e+00 5.1967448173085797e+00 2.2839048219860505e+00 0 0 0
229 1 3 2.2572845773127223e-01 2.5415095366718539e+01 1.0715804637261087e+01 1.7661460250500989e+00 -1 0 0
230 1 3 2.4010510610920430e-01 2.5883818077435155e+01 3.4958068721454536e+00 1.0558916713693542e+01 0 0 0
231 1 3 2.2628110471564966e-01 7.9169099181143157e+00 1.9136067350674679e+00 9.3262071578150909e+00 0 0 0
232 1 3 2.3621308982011480e-01 6.8306079175386971e+00 1.1142724581317628e+01 1.9244185206304003e+00 0 0 0
233 1 3 2.2971796186225230e-01 1.2475826434898686e+01 3.0902855084338317e+00 4.4871148042000923e+00 0 0 0
234 1 3 2.3456301955086695e-01 1.3267334038340067e+01 7.6762764311064196e+00 9.6766658172978808e+00 0 0 0
235 1 3 2.3746143376784443e-01 1.9800267474059108e+01 7.2630662780799362e+00 -7.7978413529383650e-01 0 0 1
236 1 3 2.4697983765323953e-01 2.0557151405413819e+01 4.6038827675987477e+00 2.2612294542908966e+00 0 0 0
237 1 3 2.4530698127701703e-01 1.3338915379243442e+01 1.0412716995691589e+01 2.4560531149212501e+00 0 0 0
238 1 3 2.2611443033653425e-01 1.4700829972542437e+01 1.5152963055780191e+00 8.2033418178403039e+00 0 0 0
239 1 3 2.3121903645990971e-01 2.0399980713058230e+01 1.3409740719727532e+00 9.0104894774052120e+00 0 0 0
240 1 3 2.2605125572381063e-01 2.0870773066980558e+01 9.4589857576475005e+00 2.2878890408103980e+00 0 0 0
241 1 4 -2.5794565599305597e-01 3.3464100423614953e+00 6.6392684687562760e+00 2.6690819084524984e+00 0 0 0
242 1 4 -2.5316762843918555e-01 2.3525790795818967e+01 6.4185210520143974e+00 5.2713899924873671e+00 0 0 0
243 1 4 -2.6735036669043116e-01 3.7756869851031305e+00 6.5467728261447800e+00 9.4025214297838495e+00 0 0 0
244 1 4 -2.5493005882323710e-01 1.0550401615347051e+01 5.2772754234055164e+00 -7.3882599279122763e-01 0 0 0
245 1 4 -2.6185492220937784e-01 2.2918420409087190e+01 1.0096262910966114e+01 -1.1975299271794473e+00 0 -1 0
246 1 4 -2.3366358870636969e-01 1.6718484425542999e+00 1.3629826220161849e+00 8.0919131263341910e+00 0 1 0
247 1 4 -2.6041213588814405e-01 9.1926438396735950e+00 7.4619831797395131e-01 5.9702277300917785e+00 0 1 0
248 1 4 -2.7499798441959783e-01 2.9276773015591235e+00 7.9674722913691043e-01 4.3273083906585903e+00 0 0 0
249 1 4 -2.8348241319513551e-01 1.3343361072112426e+01 4.6385922180409915e+00 1.1588770090828779e+00 0 0 0
250 1 4 -2.6414786774552362e-01 1.0698621105647684e+01 5.7723700854853304e+00 7.9008345978232386e+00 0 0 0
251 1 4 -2.6579239245280134e-01 2.1439160429732492e+01 7.9190698867414957e+00 9.0082985090821381e+00 0 0 0
252 1 4 -2.3050799003262545e-01 2.3341316388676510e+01 5.0076903052201631e+00 -7.2358008349079495e-01 0 0 0
253 1 4 -2.3745934140284405e-01 1.0673239608088458e+01 1.0997794705402582e+01 -4.1807475601246902e-01 0 -1 0
254 1 4 -2.5235167269278758e-01 1.6946449827821606e+01 1.1972558998969271e+01 1.1524716634873354e+01 0 0 0
255 1 4 -2.7339602171222804e-01 2.3823013579220419e+01 8.5263478429507333e-01 6.8326277017472163e+00 0 1 0
256 1 4 -2.3816527072624538e-01 1.8252284164492149e+01 1.1530952970165250e+01 9.9675428609317418e-01 0 -1 0
257 1 4 -2.4624075770731216e-01 3.0822315303644259e+00 6.4087403858856336e+00 4.8769890758021024e+00 0 0 0
258 1 4 -2.4613752707288630e-01 2.4660997288551798e+01 7.5059128818002145e+00 3.7008830172005176e+00 0 0 0
259 1 4 -2.5546900546938406e-01 3.4145527666176694e+00 7.1904044252499260e+00 1.1475044094241149e+01 0 0 0
260 1 4 -2.5942077974447786e-01 9.2099187178871453e+00 5.2234754294543233e+00 1.0906596251219089e+01 0 0 -1
261 1 4 -2.5110828341646996e-01 2.4411648858023518e+01 1.0239143162707933e+01 1.0614273145288237e+01 0 -1 -1
262 1 4 -2.6731553094004745e-01 3.3602920386128741e+00 9.6485979062825733e-01 9.5302636620267123e+00 0 1 0
263 1 4 -2.4398139971893879e-01 7.8426435255770928e+00 1.9630516059459593e+00 4.6182001087045368e+00 0 1 0
264 1 4 -2.4874674227770130e-01 4.7634344643395163e+00 1.1307225016682530e+01 6.0542128090047234e+00 0 -1 0
265 1 4 -2.7015769557771074e-01 1.5335278377440913e+01 5.6348510015043614e+00 1.1966025020838953e+00 0 0 0
266 1 4 -2.3171624401612920e-01 1.0827507283164330e+01 6.8312549322742244e+00 5.9145864335572158e+00 0 0 0
267 1 4 -2.7061023948573848e-01 1.9830561564423263e+01 7.1881905317850894e+00 7.6672873572237465e+00 0 0 0
268 1 4 -2.5105998472233482e-01 2.1590839577117620e+01 4.8976485961708347e+00 1.1373997321008595e+01 0 0 -1
269 1 4 -2.5724980689550014e-01 1.1702559323191677e+01 1.0565428240354461e+01 1.1323482114094571e+01 0 -1 -1
270 1 4 -2.1365936461076926e-01 1.4804216348506101e+01 7.3119503538340702e-01 -3.7003071589790715e-01 0 1 1
271 1 4 -2.3993435569312049e-01 2.2573663995005948e+01 1.7982223736623590e+00 5.2534069723951804e+00 0 1 0
272 1 4 -2.7561211052396556e-01 1.6670802470340245e+01 1.0252060628954245e+00 2.8779422345831192e+00 0 0 0
273 1 4 -2.3623300305204961e-01 2.5473684751450921e+01 3.7323276198842539e+00 5.3569009170659330e+00 0 0 0
274 1 4 -2.5254511603741925e-01 2.1654419866536543e+00 9.1404780064362576e+00 6.6450099160934935e+00 0 0 0
275 1 4 -2.4094955656867906e-01 8.2472342807632426e+00 9.2746370811069934e+00 1.1499970861217605e+01 0 0 -1
276 1 4 -2.5533307949637507e-01 5.2820457839632144e+00 4.5083581663590220e+00 4.2583805253107476e-01 0 0 1
277 1 4 -2.4286398257208433e-01 2.1433388716475097e+00 1.0029077773541660e+01 -4.6834214763558946e-01 0 0 1
278 1 4 -2.5701338568902443e-01 2.2177918623979895e+00 1.8327612262958113e+00 2.1886354870193414e-01 1 0 0