# LAMMPS data file written by OVITO Basic 3.5.3
7488 atoms
8 atom types
0.0 100.0 xlo xhi
0.0 100.0 ylo yhi
0.0 100.0 zlo zhi

Masses

1 1.00794  # H
2 1.0
3 1.0
4 1.0
5 1.0
6 12.0107  # C
7 14.0067  # N
8 15.9994  # O

Atoms  # full

19 1 1 0.0 33.0188 30.8482 30.8473
17 1 1 0.0 31.7591 32.1825 30.4475
16 1 8 0.0 31.1881 34.1655 30.7319
15 1 8 0.0 32.1741 36.0421 29.877
10 1 7 0.0 32.208 34.856 30.3743
7 1 6 0.0 32.6258 31.904 31.1058
518 1 8 0.0 32.3529 39.6061 30.7975
513 1 7 0.0 33.0811 38.5843 30.9896
74 1 8 0.0 32.7096 30.1544 34.8991
71 1 7 0.0 32.2612 30.893 35.8362
75 1 8 0.0 31.0105 30.9973 36.1073
18 1 1 0.0 32.2657 31.8942 32.1255
519 1 8 0.0 28.6803 35.3476 33.6183
65 1 6 0.0 33.1574 31.8802 36.5794
521 1 1 0.0 31.5259 33.5969 35.0269
523 1 1 0.0 30.0825 34.5505 35.1975
511 1 6 0.0 30.8383 34.281 34.3906
522 1 1 0.0 30.1548 33.6186 33.7379
505 1 6 0.0 31.5269 35.4242 33.5928
575 1 7 0.0 32.4731 36.1377 36.5617
579 1 8 0.0 31.2506 35.8162 36.6416
510 1 6 0.0 30.6795 36.4365 33.0248
506 1 6 0.0 32.9394 35.3613 33.3084
515 1 8 0.0 33.1933 33.1467 33.9959
514 1 7 0.0 29.1757 36.4322 33.1534
569 1 6 0.0 32.9347 37.4103 37.3176
525 1 1 0.0 30.5885 38.2831 31.8304
508 1 6 0.0 32.6314 37.5553 32.0126
509 1 6 0.0 31.2593 37.5294 32.3176
520 1 8 0.0 28.5917 37.5405 32.8787
1014 1 6 0.0 32.6841 43.0885 32.2472
1027 1 1 0.0 30.1521 42.0658 33.3303
1009 1 6 0.0 32.3442 42.0316 33.126
1019 1 8 0.0 32.0688 39.3598 34.6776
1026 1 1 0.0 31.0465 41.468 34.7688
1015 1 6 0.0 31.0731 42.2029 33.9388
1025 1 1 0.0 30.9717 43.2241 34.3962
1079 1 7 0.0 32.0396 42.7241 37.3638
1082 1 8 0.0 32.7822 41.8443 36.7746
1083 1 8 0.0 30.7841 42.7736 37.2241
1016 1 7 0.0 33.1713 39.9946 34.5075
1010 1 6 0.0 33.2272 40.9287 33.3193
1023 1 8 0.0 32.3656 45.3729 31.4443
1018 1 7 0.0 31.8876 44.3933 32.1646
1024 1 8 0.0 31.003 44.5876 33.0483
1523 1 8 0.0 31.7035 44.8987 35.6654
1517 1 6 0.0 32.6587 48.925 32.5344
1531 1 1 0.0 29.9745 48.1756 35.6051
1530 1 1 0.0 29.3959 46.9115 34.5304
1529 1 1 0.0 30.4572 46.5096 35.9949
1519 1 6 0.0 30.2917 47.2413 35.1268
1514 1 6 0.0 32.6686 46.5208 34.2055
1513 1 6 0.0 31.5269 47.3997 34.2312
1518 1 6 0.0 31.5438 48.5647 33.3986
1586 1 8 0.0 32.5797 47.8603 36.6741
1520 1 7 0.0 32.7348 45.2338 35.0096
1533 1 1 0.0 32.6576 49.8766 31.9099
1522 1 7 0.0 30.5072 49.5724 33.6885
137 1 8 0.0 26.9642 28.4038 41.7614
138 1 8 0.0 28.4745 27.1097 42.8673
134 1 7 0.0 28.1674 28.113 42.1309
128 1 6 0.0 29.3191 28.9444 41.6039
127 1 6 0.0 30.63 28.9688 42.1533
144 1 1 0.0 30.9961 26.794 42.5586
133 1 6 0.0 30.9627 27.799 43.1303
132 1 6 0.0 31.5938 29.9118 41.7233
136 1 7 0.0 32.9949 30.0256 42.3009
129 1 6 0.0 29.0005 29.9108 40.6094
146 1 1 0.0 27.9916 29.8721 40.1487
130 1 6 0.0 29.9287 30.8868 40.0979
131 1 6 0.0 31.2627 30.7533 40.5848
145 1 1 0.0 32.0084 27.879 43.6284
142 1 8 0.0 33.3296 29.1989 43.2198
66 1 6 0.0 32.6817 32.8139 37.5481
83 1 1 0.0 31.5743 32.7607 37.7766
147 1 1 0.0 32.0078 31.4975 40.1825
650 1 1 0.0 27.8589 34.0511 41.3091
135 1 7 0.0 29.5099 32.0386 39.1957
139 1 8 0.0 28.5744 31.7448 38.3749
140 1 8 0.0 30.1186 33.1594 39.2682
72 1 7 0.0 32.93 34.3339 39.5431
77 1 8 0.0 32.3686 35.4759 39.333
634 1 6 0.0 29.0695 35.8386 40.7328
635 1 6 0.0 30.2827 36.5461 40.9413
636 1 6 0.0 31.3385 36.0304 41.7612
631 1 6 0.0 31.1572 34.7288 42.3177
633 1 6 0.0 28.8786 34.5884 41.3935
632 1 6 0.0 29.9288 33.9924 42.1587
637 1 6 0.0 32.3048 34.2951 43.2758
638 1 7 0.0 29.6726 32.6503 42.8047
642 1 8 0.0 28.4985 32.1568 42.6899
647 1 1 0.0 32.2136 33.1609 43.5179
641 1 8 0.0 30.6403 32.0895 43.4348
640 1 7 0.0 32.5777 36.9056 42.0565
639 1 7 0.0 27.9299 36.4774 39.851
643 1 8 0.0 26.7699 35.9626 39.9917
646 1 8 0.0 33.2668 36.5727 43.063
644 1 8 0.0 28.2695 37.3635 39.0337
76 1 8 0.0 32.8808 33.7626 40.7021
587 1 1 0.0 30.9681 37.878 38.2516
570 1 6 0.0 32.0572 38.1696 38.0843
651 1 1 0.0 30.3343 37.5598 40.5125
645 1 8 0.0 32.872 37.9621 41.3885
571 1 6 0.0 32.4045 39.3755 38.7742
1146 1 8 0.0 27.7342 38.4824 42.4519
1154 1 1 0.0 27.7586 40.6081 41.3286
576 1 7 0.0 31.4048 40.0993 39.6109
581 1 8 0.0 30.3527 39.4759 40.0109
580 1 8 0.0 31.7834 41.269 39.9979
1136 1 6 0.0 29.532 40.0351 42.4845
1135 1 6 0.0 30.7936 40.5589 42.9494
1137 1 6 0.0 28.7802 40.9298 41.6978
1138 1 6 0.0 29.3098 42.1682 41.2563
1139 1 6 0.0 30.5066 42.7453 41.8537
1140 1 6 0.0 31.3058 41.8929 42.6318
1143 1 7 0.0 28.4671 42.8423 40.2061
1144 1 7 0.0 32.7221 42.2445 42.9496
1142 1 7 0.0 28.9466 38.6714 42.8114
1145 1 8 0.0 29.7159 37.7571 43.2783
1149 1 8 0.0 32.924 43.3786 43.5473
1147 1 8 0.0 27.3231 42.4185 39.8501
1153 1 1 0.0 31.6261 38.5288 43.5281
1652 1 8 0.0 26.6027 48.159 40.0692
1583 1 7 0.0 32.0787 48.7047 37.5021
1587 1 8 0.0 31.3469 48.2754 38.4886
1650 1 8 0.0 27.2934 44.1785 43.2925
1073 1 6 0.0 32.7649 43.8471 38.0975
1155 1 1 0.0 30.8445 43.7534 41.5238
1091 1 1 0.0 30.8753 44.522 39.0684
1148 1 8 0.0 29.0264 43.914 39.7498
1074 1 6 0.0 31.9993 44.716 38.8981
1658 1 1 0.0 27.3073 45.9847 41.4758
1075 1 6 0.0 32.6077 45.8132 39.5855
1084 1 8 0.0 30.8114 46.0245 41.0522
1080 1 7 0.0 31.9759 46.4657 40.8038
1640 1 6 0.0 28.9566 45.9002 42.9663
1641 1 6 0.0 28.1985 46.5175 41.8946
1647 1 7 0.0 27.7322 48.625 40.4131
1085 1 8 0.0 32.437 47.5777 41.2648
1642 1 6 0.0 28.4627 47.8771 41.5588
1643 1 6 0.0 29.4038 48.6142 42.2895
1644 1 6 0.0 30.2231 48.0356 43.2965
1659 1 1 0.0 29.6488 49.6351 41.9051
1651 1 8 0.0 28.204 49.7486 40.0153
1639 1 6 0.0 30.0479 46.6601 43.4973
1646 1 7 0.0 28.5105 44.5836 43.5014
143 1 1 0.0 30.2456 27.5365 43.9383
2026 1 7 0.0 30.7426 30.8687 49.262
2032 1 8 0.0 29.903 30.21 48.5778
113 1 7 0.0 30.5234 30.1456 45.3784
116 1 8 0.0 29.6783 29.4777 44.7091
117 1 8 0.0 31.7058 29.8085 45.7384
2022 1 6 0.0 32.0506 30.2117 49.6947
122 1 1 0.0 27.9848 30.4256 44.623
124 1 1 0.0 26.9052 30.5488 46.0291
112 1 6 0.0 27.5708 31.1557 45.354
2021 1 6 0.0 33.2981 30.8236 49.3494
120 1 8 0.0 26.1048 33.2976 46.1125
627 1 1 0.0 26.4029 35.6837 45.2621
616 1 6 0.0 26.2198 36.754 45.6482
626 1 1 0.0 25.4114 36.6504 46.4675
628 1 1 0.0 25.6608 37.3888 44.9583
649 1 1 0.0 32.2641 34.7701 44.3121
121 1 8 0.0 26.7204 34.4516 47.9419
123 1 1 0.0 26.8148 31.8997 44.8811
115 1 7 0.0 26.9873 33.6382 46.9845
111 1 6 0.0 28.385 33.1419 46.8044
107 1 6 0.0 30.0536 31.4718 45.9619
106 1 6 0.0 28.6714 31.9304 46.1298
125 1 1 0.0 32.1639 31.8928 46.3558
108 1 6 0.0 31.0906 32.2886 46.38
126 1 1 0.0 29.2585 34.8141 47.8487
109 1 6 0.0 30.8533 33.5177 47.0933
110 1 6 0.0 29.5221 33.921 47.2224
119 1 8 0.0 31.9745 35.6395 47.5886
114 1 7 0.0 31.9049 34.3875 47.8212
617 1 7 0.0 29.1019 35.8858 45.1451
620 1 8 0.0 28.1329 35.2975 44.5781
621 1 8 0.0 30.3364 35.5912 44.9948
611 1 6 0.0 28.7748 37.0292 46.0971
118 1 8 0.0 32.6799 33.713 48.5545
629 1 1 0.0 30.8614 37.3641 46.7555
2541 1 1 0.0 32.6906 36.9636 49.5405
2031 1 8 0.0 30.526 31.9908 49.8485
2535 1 8 0.0 29.7085 36.4022 49.3706
610 1 6 0.0 27.4349 37.4245 46.3659
1130 1 1 0.0 24.4035 42.9594 46.6588
1132 1 1 0.0 25.079 43.2324 45.0288
1120 1 6 0.0 25.3464 42.7258 46.0094
625 1 8 0.0 25.1493 39.3894 45.9531
619 1 7 0.0 25.8393 39.4558 47.0201
624 1 8 0.0 25.6031 40.2451 48.0159
1131 1 1 0.0 25.3474 41.6487 45.668
1151 1 1 0.0 32.6855 39.938 43.885
1141 1 6 0.0 31.6238 39.6372 43.8491
1114 1 6 0.0 26.6968 43.2398 46.5474
615 1 6 0.0 27.0991 38.6121 47.082
623 1 8 0.0 30.4464 40.8832 48.3546
1152 1 1 0.0 31.3193 39.6527 44.9472
1124 1 8 0.0 27.1801 41.3026 44.2351
630 1 1 0.0 27.8953 40.1486 48.3517
622 1 8 0.0 31.3895 39.027 49.2467
612 1 6 0.0 29.7747 37.7077 46.8338
1044 1 8 0.0 32.5742 38.8719 46.7894
613 1 6 0.0 29.5148 38.8305 47.7077
614 1 6 0.0 28.1494 39.2041 47.8267
618 1 7 0.0 30.5755 39.6374 48.4428
1045 1 8 0.0 32.4693 41.0049 46.0337
1115 1 6 0.0 27.8537 42.4576 46.2599
1116 1 6 0.0 29.0748 42.8267 46.9136
1121 1 7 0.0 27.9375 41.34 45.2614
1125 1 8 0.0 28.7886 40.4096 45.539
1133 1 1 0.0 30.0929 42.3028 46.6415
1039 1 7 0.0 33.1094 40.0161 46.5242
3045 1 1 0.0 31.8668 42.1582 49.6835
1636 1 1 0.0 25.7319 47.8298 46.3396
1129 1 8 0.0 25.6226 46.2924 48.3438
1123 1 7 0.0 25.7137 45.6071 47.285
1128 1 8 0.0 25.0231 45.8912 46.2469
1624 1 6 0.0 25.811 48.7504 47.0159
1635 1 1 0.0 25.0255 48.5322 47.7701
1634 1 1 0.0 25.4091 49.6139 46.4306
1118 1 6 0.0 27.9976 44.758 47.9092
1618 1 6 0.0 27.2696 48.9746 47.5583
1625 1 7 0.0 28.1446 47.4388 45.6961
1649 1 8 0.0 29.3901 43.8244 44.0392
1119 1 6 0.0 26.7944 44.5068 47.2359
1628 1 8 0.0 28.6471 46.2444 45.6718
1122 1 7 0.0 30.5355 44.6319 48.1161
1126 1 8 0.0 31.297 43.9541 48.8959
1637 1 1 0.0 30.5715 48.1008 46.8739
1655 1 1 0.0 30.9194 46.0696 45.5155
1621 1 6 0.0 29.9004 49.6181 48.2858
1549 1 8 0.0 32.991 46.9858 46.795
1134 1 1 0.0 28.1153 45.7106 48.4432
1653 1 8 0.0 30.8043 49.7813 44.8658
1620 1 6 0.0 29.6757 48.5608 47.3626
1629 1 8 0.0 27.271 47.9299 44.8988
1619 1 6 0.0 28.3416 48.2043 46.9983
1657 1 1 0.0 32.1329 46.2403 44.3208
1117 1 6 0.0 29.2074 44.0337 47.6855
1656 1 1 0.0 31.1802 44.8228 44.1934
1645 1 6 0.0 31.0793 45.9272 44.4083
1127 1 8 0.0 30.6468 45.9073 47.9457
1654 1 8 0.0 32.4803 48.5025 44.0791
1648 1 7 0.0 31.259 48.8425 44.0984
3549 1 1 0.0 31.0258 46.8276 49.9754
2033 1 1 0.0 30.9381 28.0193 52.1172
2023 1 6 0.0 30.7638 28.3693 51.045
2017 1 6 0.0 32.0443 29.0014 50.4319
2087 1 7 0.0 31.1815 30.1675 54.1073
2090 1 8 0.0 31.3027 28.8781 53.9613
2091 1 8 0.0 30.3398 30.8662 53.4903
2081 1 6 0.0 32.0888 30.7502 55.1862
2034 1 1 0.0 30.4739 27.4027 50.4763
2035 1 1 0.0 29.8892 29.0935 51.0151
2028 1 8 0.0 32.3323 26.2313 51.3528
2018 1 6 0.0 33.2519 28.3877 50.8961
2024 1 7 0.0 33.1824 27.0889 51.7435
2537 1 1 0.0 29.8028 33.5452 51.467
2539 1 1 0.0 30.9191 32.4175 52.2743
2538 1 1 0.0 30.373 34.0239 53.053
2527 1 6 0.0 30.7096 33.5117 52.0952
2521 1 6 0.0 31.8704 34.2524 51.3581
2522 1 6 0.0 33.1595 33.6291 51.4654
2525 1 6 0.0 32.7419 35.9939 50.0839
2526 1 6 0.0 31.5526 35.4514 50.6562
2530 1 7 0.0 30.1216 35.995 50.5176
2536 1 8 0.0 29.5207 36.2045 51.6127
2594 1 8 0.0 32.731 33.9311 54.8085
2595 1 8 0.0 30.6721 34.9281 55.0088
2591 1 7 0.0 31.9306 34.825 55.2823
3035 1 8 0.0 32.1826 36.9365 52.8624
2531 1 8 0.0 32.6721 31.3763 52.0607
2585 1 6 0.0 32.5496 35.8219 56.2122
3042 1 1 0.0 30.1595 38.1829 53.2399
3043 1 1 0.0 29.32 38.5102 51.5885
3041 1 1 0.0 29.1569 39.6753 52.9068
3032 1 7 0.0 32.856 37.9808 53.0635
3031 1 6 0.0 29.9057 38.9422 52.4786
3026 1 6 0.0 32.4859 39.1649 52.2293
3025 1 6 0.0 31.1561 39.6206 51.917
3029 1 6 0.0 32.0196 41.354 50.4631
3030 1 6 0.0 30.9066 40.773 51.1241
3034 1 7 0.0 29.5641 41.5125 51.1659
3039 1 8 0.0 29.5828 42.6511 51.7631
3040 1 8 0.0 28.4811 40.9012 50.867
3098 1 8 0.0 31.5765 39.4728 54.8566
3099 1 8 0.0 29.9483 40.9941 54.4502
3539 1 8 0.0 32.164 43.4324 54.9533
3095 1 7 0.0 30.9765 40.5737 55.0914
3536 1 7 0.0 31.1036 44.1371 54.7482
3545 1 1 0.0 28.5756 43.9289 53.7454
3546 1 1 0.0 27.5951 45.1031 52.8116
3547 1 1 0.0 28.1726 45.4784 54.5015
3540 1 8 0.0 30.2805 44.4403 55.6834
3535 1 6 0.0 28.4909 45.0521 53.5181
3530 1 6 0.0 31.0294 44.8495 53.4402
3529 1 6 0.0 29.8393 45.4468 52.8973
3534 1 6 0.0 29.847 46.148 51.6482
3602 1 8 0.0 29.8289 48.6908 52.8973
3603 1 8 0.0 32.0435 48.6347 52.4166
3599 1 7 0.0 31.0795 48.515 53.2229
3532 1 6 0.0 32.2216 45.6136 51.3639
3531 1 6 0.0 32.1803 44.9076 52.6149
3533 1 6 0.0 31.0585 46.2772 50.9069
3538 1 7 0.0 28.6091 46.7591 51.0204
3593 1 6 0.0 31.3756 48.0214 54.6228
3592 1 6 0.0 32.6256 47.5491 55.0715
3548 1 1 0.0 33.1014 44.3083 52.9797
3544 1 8 0.0 27.5173 46.093 51.1184
3611 1 1 0.0 29.3629 48.5017 55.2983
3594 1 6 0.0 30.3223 48.0083 55.5724
3543 1 8 0.0 28.7422 47.7649 50.2457
2162 1 1 0.0 27.2336 28.5386 60.9702
2146 1 6 0.0 29.23 29.1376 60.2862
2147 1 6 0.0 30.6004 29.2316 60.6157
2145 1 6 0.0 28.3319 28.3633 61.0945
2163 1 1 0.0 31.265 29.9386 59.9912
2151 1 7 0.0 28.7863 30.0226 59.1368
2155 1 8 0.0 29.5878 30.1055 58.1212
2148 1 6 0.0 31.1194 28.2868 61.5895
2156 1 8 0.0 27.7247 30.6959 59.232
2152 1 7 0.0 32.5155 28.5143 61.9994
2144 1 6 0.0 28.8031 27.3959 62.016
2143 1 6 0.0 30.2243 27.3334 62.1762
2157 1 8 0.0 33.0276 29.7097 61.9582
2158 1 8 0.0 33.1459 27.4921 62.4521
2082 1 6 0.0 31.5339 31.3613 56.3255
2660 1 8 0.0 28.5731 34.5643 57.7667
2083 1 6 0.0 32.2891 32.1331 57.2728
2099 1 1 0.0 30.4424 31.3207 56.3914
2092 1 8 0.0 31.4938 32.2228 59.5291
2666 1 1 0.0 27.5824 33.2055 60.1338
2088 1 7 0.0 31.5757 32.8301 58.4274
2093 1 8 0.0 31.491 34.1128 58.2742
2649 1 6 0.0 28.5332 33.4624 60.5738
2650 1 6 0.0 29.3287 34.5647 60.047
2651 1 6 0.0 30.6171 34.8245 60.6181
2655 1 7 0.0 29.0145 35.2452 58.7601
2667 1 1 0.0 31.209 35.6486 60.1539
2659 1 8 0.0 29.0834 36.5339 58.7537
2652 1 6 0.0 31.2 34.0684 61.6688
2603 1 1 0.0 30.6137 36.8359 56.8764
2586 1 6 0.0 31.7641 36.7763 56.9781
2648 1 6 0.0 29.1142 32.6075 61.5366
2647 1 6 0.0 30.4096 32.9738 62.0489
3162 1 8 0.0 27.5444 36.0218 61.8411
2654 1 7 0.0 28.2471 31.615 62.2587
2656 1 7 0.0 32.6199 34.4437 62.1502
3158 1 7 0.0 28.5992 36.5994 62.2792
3164 1 8 0.0 27.9782 39.2226 57.853
3668 1 8 0.0 26.9035 42.8373 60.658
2587 1 6 0.0 32.3552 37.7379 57.8314
3089 1 6 0.0 31.405 41.3084 56.3428
2596 1 8 0.0 31.6086 38.0165 60.0679
2592 1 7 0.0 31.5642 38.4867 58.885
3170 1 1 0.0 27.7981 37.6945 59.9679
2597 1 8 0.0 30.8984 39.4766 58.4378
3090 1 6 0.0 30.5183 42.0609 57.149
3107 1 1 0.0 29.3943 41.9665 56.9367
3154 1 6 0.0 28.7151 39.7224 60.0489
3159 1 7 0.0 28.2345 40.1605 58.6721
3088 1 6 0.0 32.8163 41.5254 56.6547
3079 1 8 0.0 32.7971 41.5376 60.7404
3153 1 6 0.0 28.4393 38.435 60.5493
3163 1 8 0.0 28.0428 41.3915 58.3732
3092 1 6 0.0 32.3465 43.0634 58.494
3155 1 6 0.0 29.4803 40.6454 60.8192
3171 1 1 0.0 29.5933 41.662 60.3636
3091 1 6 0.0 30.9632 43.0573 58.1329
3108 1 1 0.0 32.6845 43.6484 59.4298
3152 1 6 0.0 29.0003 37.9757 61.7526
3156 1 6 0.0 30.1101 40.2416 61.9812
3151 1 6 0.0 29.9821 38.8271 62.3555
3093 1 6 0.0 33.2697 42.203 57.8144
3667 1 8 0.0 25.8904 44.8772 60.345
3663 1 7 0.0 26.6793 44.0802 60.9746
3096 1 7 0.0 30.0103 43.917 58.8817
3612 1 1 0.0 31.8245 46.4622 58.2899
3596 1 6 0.0 31.6734 46.8616 57.2658
3100 1 8 0.0 28.9608 44.3695 58.2574
3605 1 8 0.0 29.2531 47.1547 58.9891
3101 1 8 0.0 30.4491 44.4422 59.956
3595 1 6 0.0 30.4405 47.4928 56.8801
3600 1 7 0.0 29.2282 47.5916 57.7882
3604 1 8 0.0 28.1369 48.1072 57.3038
3597 1 6 0.0 32.7206 46.8461 56.3066
3675 1 1 0.0 28.6771 45.8954 60.8972
3658 1 6 0.0 27.4016 44.6897 62.1298
3659 1 6 0.0 28.434 45.6417 61.9109
3669 1 8 0.0 30.3117 48.0456 61.8791
2153 1 8 0.0 26.8411 26.1726 62.5809
2150 1 7 0.0 27.8941 26.7214 63.0508
2154 1 8 0.0 28.0932 27.0569 64.2674
2160 1 1 0.0 31.2314 26.647 64.0722
2159 1 1 0.0 31.5115 25.5704 62.722
2149 1 6 0.0 30.7112 26.2385 63.1768
2161 1 1 0.0 29.9311 25.526 63.5791
2129 1 7 0.0 31.3658 28.6654 65.6653
2132 1 8 0.0 31.7905 27.4876 65.9326
2133 1 8 0.0 31.3083 29.1366 64.4795
2140 1 1 0.0 28.2214 28.8236 65.6849
2123 1 6 0.0 30.81 29.4974 66.79
2139 1 1 0.0 27.5399 30.385 65.5138
2128 1 6 0.0 28.5347 29.8336 65.6185
2657 1 8 0.0 28.8183 30.5086 62.5705
2122 1 6 0.0 29.4984 30.1092 66.8123
2138 1 1 0.0 28.9919 29.8978 64.6114
2124 1 6 0.0 31.4999 29.5774 68.025
2663 1 1 0.0 30.9109 30.8932 62.6152
2127 1 6 0.0 29.0211 31.0133 67.8244
2141 1 1 0.0 32.4964 29.0302 68.0852
2643 1 1 0.0 25.7325 34.275 65.2558
2642 1 1 0.0 26.575 35.1387 63.8555
2635 1 7 0.0 25.6854 37.1512 66.1626
2641 1 8 0.0 24.9581 36.4038 65.3699
2559 1 1 0.0 33.2345 35.0487 65.4882
2137 1 8 0.0 26.9176 31.7722 66.8324
2658 1 8 0.0 27.0249 31.9009 62.5345
2664 1 1 0.0 32.1944 32.0028 63.1023
2632 1 6 0.0 26.7081 34.5852 64.8521
2644 1 1 0.0 27.1786 33.6038 64.5823
2661 1 8 0.0 32.7305 35.5557 62.7927
2665 1 1 0.0 30.6446 31.9193 64.1333
2556 1 8 0.0 31.856 31.9725 66.3362
2653 1 6 0.0 31.0672 31.9116 63.0337
2551 1 7 0.0 32.3403 32.4682 67.4215
2627 1 6 0.0 28.8736 34.9508 66.1819
2633 1 7 0.0 29.6551 33.9485 65.3349
2636 1 8 0.0 29.2003 32.7366 65.2505
2637 1 8 0.0 30.7443 34.382 64.8563
2626 1 6 0.0 27.5685 35.3805 65.9043
3161 1 8 0.0 29.3189 36.2224 63.2681
2628 1 6 0.0 29.6151 35.6246 67.234
3060 1 8 0.0 31.6861 36.9067 66.0332
2645 1 1 0.0 30.6348 35.2652 67.5067
2631 1 6 0.0 27.0167 36.5744 66.5144
2131 1 7 0.0 27.9011 32.0306 67.6231
2557 1 8 0.0 31.6919 32.8325 68.4643
3168 1 1 0.0 31.3117 37.2592 63.3896
2136 1 8 0.0 28.0343 33.0732 68.3172
2629 1 6 0.0 29.121 36.768 67.8552
2630 1 6 0.0 27.8252 37.2434 67.4744
2558 1 1 0.0 32.7228 33.4884 64.923
2640 1 8 0.0 25.4523 38.3157 66.6032
3146 1 1 0.0 25.367 40.3434 67.6101
3136 1 6 0.0 25.9756 41.0876 67.1025
3148 1 1 0.0 25.2994 42.0085 67.1782
3147 1 1 0.0 25.909 40.7786 66.018
3674 1 1 0.0 26.3382 43.6268 63.7458
3167 1 1 0.0 30.1605 38.1955 64.5267
3169 1 1 0.0 31.6461 39.0234 63.7698
3565 1 8 0.0 32.1769 43.2834 67.064
3160 1 7 0.0 30.8171 41.2091 62.9039
3165 1 8 0.0 30.5434 42.4465 62.6938
3157 1 6 0.0 30.8198 38.3069 63.5247
3055 1 7 0.0 32.0126 38.0793 66.4737
3061 1 8 0.0 31.1819 39.0407 66.5175
3131 1 6 0.0 28.4651 41.0329 66.7689
3137 1 7 0.0 28.242 40.6967 65.2951
3140 1 8 0.0 28.4308 39.5132 64.8464
3141 1 8 0.0 27.8407 41.7085 64.617
3149 1 1 0.0 30.6715 41.1375 66.6563
3166 1 8 0.0 31.564 40.7832 63.8505
3132 1 6 0.0 29.7722 41.2286 67.3156
3130 1 6 0.0 27.3886 41.2161 67.6992
2646 1 1 0.0 27.4888 38.23 67.8965
3133 1 6 0.0 29.9979 41.4291 68.7142
3142 1 8 0.0 32.3568 40.983 68.7139
3063 1 1 0.0 32.4596 40.5473 65.8381
3666 1 8 0.0 26.437 44.1388 66.3689
3657 1 6 0.0 27.223 44.3128 63.521
3665 1 8 0.0 28.6113 44.1216 66.7889
3662 1 7 0.0 27.6367 44.3622 65.9998
3672 1 1 0.0 30.9041 45.2066 65.1754
3671 1 1 0.0 29.7843 45.7606 66.3952
3559 1 7 0.0 32.6482 44.3501 67.6242
3656 1 6 0.0 27.9894 44.8162 64.5865
3564 1 8 0.0 31.9073 45.3115 68.0221
3670 1 8 0.0 31.5237 46.7533 63.3096
3664 1 7 0.0 30.4977 47.0076 62.5933
3673 1 1 0.0 30.5283 47.06 65.2122
3660 1 6 0.0 29.2582 46.1758 62.9509
3644 1 8 0.0 27.9684 47.3909 67.1265
3661 1 6 0.0 30.1348 45.9862 65.3416
3655 1 6 0.0 29.0353 45.736 64.2676
3641 1 7 0.0 28.9117 48.1175 67.5449
3645 1 8 0.0 29.3296 49.2204 67.0126
3653 1 1 0.0 31.4418 48.7561 68.3258
3635 1 6 0.0 29.6986 47.4907 68.6835
3582 1 8 0.0 33.3091 48.5816 64.9421
2134 1 8 0.0 33.0138 30.1681 70.5201
2125 1 6 0.0 30.9797 30.2226 69.1782
2130 1 7 0.0 31.7343 30.158 70.5092
2135 1 8 0.0 31.0064 30.2337 71.5578
2126 1 6 0.0 29.8026 31.0262 68.9971
2142 1 1 0.0 29.4154 31.7138 69.8105
2638 1 8 0.0 30.8999 36.9211 69.4999
3144 1 8 0.0 25.1674 41.8763 69.4557
3145 1 8 0.0 26.5074 41.3995 71.1897
3139 1 7 0.0 26.3499 41.7213 69.9468
2634 1 7 0.0 29.92 37.502 68.9285
3143 1 8 0.0 31.4138 41.7763 70.5933
3138 1 7 0.0 31.3354 41.4159 69.3414
2639 1 8 0.0 29.4297 38.6344 69.2697
3134 1 6 0.0 28.8737 41.5798 69.6047
3135 1 6 0.0 27.5576 41.4403 69.0818
3150 1 1 0.0 28.996 41.7225 70.7165
3648 1 8 0.0 30.2926 43.7009 71.5603
3639 1 6 0.0 30.0072 45.7797 70.508
3654 1 1 0.0 32.0103 45.6078 71.3423
3649 1 8 0.0 28.278 44.7223 71.7978
3651 1 1 0.0 26.9511 46.7001 68.865
3634 1 6 0.0 29.1624 46.4972 69.5393
6394 1 7 0.0 32.1713 49.5261 71.8467
3652 1 1 0.0 27.277 46.0203 70.5821
3636 1 6 0.0 31.0395 47.8832 68.9438
3650 1 1 0.0 27.6179 45.0061 69.1486
3637 1 6 0.0 31.9257 47.266 69.9071
6396 1 8 0.0 32.1566 48.5048 72.6485
3643 1 7 0.0 29.486 44.6768 71.2973
3638 1 6 0.0 31.3906 46.1961 70.658
3640 1 6 0.0 27.6869 46.0815 69.5253
6395 1 8 0.0 31.078 49.9558 71.3285
1580 1 6 0.0 31.7352 52.9385 36.5474
1596 1 1 0.0 31.475 53.9452 36.1125
1577 1 6 0.0 32.1854 50.1663 37.2857
1528 1 8 0.0 29.8491 50.063 32.6932
1581 1 6 0.0 32.7977 52.1719 35.9544
1527 1 8 0.0 30.3663 50.0394 34.8901
1576 1 6 0.0 33.165 50.8725 36.4809
1591 1 8 0.0 33.2672 51.9732 33.6562
4127 1 8 0.0 32.1146 56.5279 36.3942
4128 1 8 0.0 32.5002 56.6182 34.1578
4126 1 7 0.0 32.9081 56.5553 35.3801
4703 1 8 0.0 32.7877 66.9689 35.7722
4704 1 8 0.0 33.1319 69.2134 35.7048
4085 1 8 0.0 33.1351 50.8252 42.9921
1579 1 6 0.0 31.0161 52.3475 37.6428
1578 1 6 0.0 31.2164 50.9827 37.9795
1589 1 8 0.0 29.2844 53.9511 38.0208
1584 1 7 0.0 30.1214 53.1697 38.5656
1588 1 8 0.0 30.3613 53.0473 39.822
4070 1 1 0.0 30.3458 54.6349 41.6389
4088 1 1 0.0 29.4062 52.6894 42.6914
4087 1 6 0.0 30.2029 53.1317 43.3743
4101 1 7 0.0 30.8694 55.6724 43.4713
4069 1 6 0.0 30.8825 54.31 42.618
4086 1 8 0.0 31.5096 51.2315 41.505
4074 1 8 0.0 31.9861 55.2244 40.3008
4084 1 7 0.0 32.0356 51.3977 42.6823
4071 1 7 0.0 32.3137 54.0906 42.3806
4072 1 7 0.0 32.8417 54.9264 41.2259
1595 1 1 0.0 30.5492 50.4833 38.779
4102 1 7 0.0 30.9669 56.9394 42.6592
4104 1 8 0.0 30.2184 57.0517 41.596
4103 1 8 0.0 31.5813 57.9661 43.1265
4044 1 8 0.0 32.4373 60.4613 41.4934
4674 1 8 0.0 29.0882 66.6265 42.9091
4664 1 1 0.0 31.2966 65.4508 37.7672
4645 1 6 0.0 32.3699 66.9282 38.8994
4646 1 1 0.0 32.4128 67.4893 37.9317
4677 1 7 0.0 31.8306 67.9154 39.9832
4663 1 6 0.0 31.5275 65.6763 38.8248
4659 1 7 0.0 32.3091 64.2485 39.3435
4668 1 8 0.0 29.0235 64.4641 38.0464
4665 1 7 0.0 30.3638 65.6794 39.7153
4666 1 7 0.0 29.2827 64.7046 39.2924
4675 1 6 0.0 32.3302 67.3132 41.3139
4667 1 8 0.0 28.7613 63.9191 40.1615
4657 1 6 0.0 32.3392 64.3814 40.8121
4669 1 6 0.0 31.094 65.1784 41.1309
4671 1 7 0.0 31.3436 66.4033 42.0117
4658 1 1 0.0 32.4177 63.3255 41.2212
4672 1 7 0.0 29.9873 67.1199 42.1492
4670 1 1 0.0 30.3417 64.5411 41.6877
4676 1 1 0.0 32.4912 68.3016 41.8622
4673 1 8 0.0 29.7741 68.158 41.4586
4655 1 8 0.0 32.7043 64.2696 43.5035
4678 1 7 0.0 32.3505 69.3382 39.7586
4679 1 8 0.0 32.9995 69.8951 40.7046
4680 1 8 0.0 32.207 69.9475 38.6468
1632 1 8 0.0 25.2511 50.473 49.1419
1627 1 7 0.0 26.3933 51.0092 48.8724
1633 1 8 0.0 26.6121 52.2769 48.9728
1622 1 6 0.0 28.8345 50.3759 48.8131
4075 1 6 0.0 32.9665 54.4903 43.8666
4092 1 8 0.0 27.7208 52.0689 44.6034
4083 1 7 0.0 31.1735 52.0043 43.7699
4099 1 6 0.0 32.0221 55.466 44.4991
4081 1 6 0.0 31.9608 52.5466 44.9609
4091 1 8 0.0 28.6331 52.2918 46.614
4090 1 7 0.0 28.6426 52.5267 45.3513
4098 1 8 0.0 29.3428 55.5037 47.0801
4089 1 7 0.0 29.6365 53.5323 44.7216
4094 1 1 0.0 30.6353 53.2834 46.6245
4093 1 6 0.0 30.9564 53.5643 45.5784
4095 1 7 0.0 31.4428 54.9442 45.8581
4096 1 7 0.0 30.2495 55.8491 46.2581
4082 1 1 0.0 32.229 51.6402 45.5566
4077 1 7 0.0 33.3008 53.2538 44.6551
1623 1 6 0.0 27.4895 50.1411 48.4029
1638 1 1 0.0 29.0538 51.2404 49.4923
1630 1 8 0.0 32.1016 50.2065 47.5895
1626 1 7 0.0 31.4154 50.0234 48.6375
1631 1 8 0.0 31.8823 50.1116 49.8018
5280 1 8 0.0 33.2186 56.3417 46.8697
4040 1 1 0.0 32.9272 60.2596 43.8381
4100 1 1 0.0 32.478 56.5103 44.7237
4097 1 8 0.0 30.3626 57.0968 45.9151
4037 1 8 0.0 32.5612 60.3425 46.0435
5279 1 8 0.0 32.2285 57.4427 48.5127
5278 1 7 0.0 33.2378 56.7836 48.064
5855 1 8 0.0 30.8263 66.6128 46.134
5862 1 8 0.0 32.1479 64.5655 47.7787
5858 1 1 0.0 31.9462 67.2206 47.9839
5856 1 8 0.0 31.6672 67.4362 44.2252
5853 1 7 0.0 33.1849 67.1216 46.1631
5854 1 7 0.0 31.805 67.1003 45.4701
5857 1 6 0.0 33.0125 67.3295 47.7526
5846 1 1 0.0 32.6345 69.3434 48.5352
5849 1 8 0.0 32.2826 71.1533 46.6532
5850 1 8 0.0 32.5665 70.1466 44.7424
5848 1 7 0.0 32.8819 70.2187 45.9789
5286 1 8 0.0 32.8512 56.2081 51.3894
5814 1 8 0.0 30.6797 60.2742 55.7154
5816 1 1 0.0 30.7572 62.1966 53.9765
5811 1 7 0.0 32.2053 62.2468 55.6586
5820 1 8 0.0 28.4774 62.668 54.9135
5815 1 6 0.0 31.4224 62.9189 54.5059
5817 1 7 0.0 30.4548 63.9715 55.1443
5818 1 7 0.0 29.2206 63.3205 55.7397
5797 1 6 0.0 32.3816 63.5857 53.4724
5829 1 7 0.0 32.1126 65.0344 53.3331
5798 1 1 0.0 32.2006 63.0671 52.4879
5825 1 8 0.0 31.0565 67.2491 53.9789
5824 1 7 0.0 30.8889 66.8198 55.1614
5823 1 7 0.0 31.9852 65.9171 55.7609
5826 1 8 0.0 29.6725 66.6531 55.6021
5821 1 6 0.0 31.3705 64.5607 56.2341
5832 1 8 0.0 32.2905 65.2953 50.9171
5830 1 7 0.0 32.6246 65.7445 52.0585
5827 1 6 0.0 32.9804 65.625 54.647
5769 1 7 0.0 33.2699 69.6098 53.5221
5772 1 8 0.0 31.0681 69.361 52.4097
5770 1 7 0.0 32.3595 69.5399 52.2688
5787 1 7 0.0 32.9687 72.1695 52.756
5788 1 7 0.0 32.7981 73.6543 52.3178
5791 1 6 0.0 32.4634 71.9764 54.1903
5792 1 1 0.0 31.3451 72.1951 54.1331
5767 1 6 0.0 32.6551 70.4315 54.6173
5768 1 1 0.0 31.669 69.9772 54.9232
5789 1 8 0.0 31.8601 74.2766 52.9127
5793 1 7 0.0 33.2189 72.7763 55.1848
5771 1 8 0.0 32.8908 69.2323 51.1543
5795 1 8 0.0 31.0564 73.423 56.0511
5794 1 7 0.0 32.3368 73.5319 56.1755
5790 1 8 0.0 33.2362 74.0892 51.1796
5248 1 7 0.0 33.2825 52.6778 58.4369
5250 1 8 0.0 32.6164 52.6981 59.511
5249 1 8 0.0 32.778 53.0989 57.3242
5812 1 7 0.0 31.3041 61.2198 56.3505
5813 1 8 0.0 31.3883 61.2548 57.6242
6972 1 8 0.0 31.7074 62.0549 61.2184
5189 1 8 0.0 32.9524 57.4595 58.9551
6966 1 8 0.0 32.6533 59.7433 62.4417
5192 1 1 0.0 33.2561 59.2429 57.0928
6971 1 8 0.0 29.8782 62.7109 62.3488
6970 1 7 0.0 31.1665 62.6084 62.2344
5809 1 6 0.0 32.4309 63.4963 56.5819
5819 1 8 0.0 28.9801 63.406 57.0118
5810 1 1 0.0 32.2422 63.0765 57.6115
5822 1 1 0.0 30.6731 64.8344 57.0822
7008 1 8 0.0 31.342 67.2676 59.1877
7006 1 7 0.0 32.4949 67.4619 58.6904
7010 1 1 0.0 32.3681 67.3388 61.2175
7014 1 8 0.0 32.1844 64.8655 61.6335
7007 1 8 0.0 32.614 67.9174 57.4864
5765 1 8 0.0 31.2154 70.4925 56.8963
5764 1 7 0.0 32.4781 70.6204 57.1526
5796 1 8 0.0 32.8981 74.2459 57.0617
5766 1 8 0.0 32.9494 70.7593 58.3441
6998 1 1 0.0 33.306 69.5196 61.6114
6402 1 8 0.0 32.4589 51.1426 68.1584
6371 1 8 0.0 31.6463 56.7204 67.7706
6965 1 8 0.0 31.1555 59.2239 64.0252
6959 1 8 0.0 32.1623 59.6349 67.2695
6958 1 7 0.0 32.7593 60.715 67.6072
6962 1 1 0.0 30.8426 60.9836 65.5833
6957 1 7 0.0 32.2737 61.9906 66.8559
6961 1 6 0.0 31.7292 61.6723 65.4582
6964 1 7 0.0 32.1396 59.9123 63.6178
6963 1 7 0.0 32.7704 61.0122 64.5082
6370 1 7 0.0 32.2489 57.4962 68.5895
6967 1 6 0.0 33.2475 62.2233 63.7064
6974 1 1 0.0 30.1438 62.9062 64.5855
6973 1 6 0.0 31.2275 62.9658 64.7955
6969 1 7 0.0 32.0377 63.0758 63.4197
6929 1 8 0.0 33.0714 66.6804 68.1563
6978 1 8 0.0 30.1587 65.3014 63.8657
6976 1 7 0.0 30.8425 65.3953 64.9792
6977 1 8 0.0 31.1541 66.5803 65.4038
6975 1 7 0.0 31.4078 64.1668 65.6649
6979 1 6 0.0 32.923 64.3418 66.0126
6980 1 1 0.0 33.0371 65.2402 66.6145
6921 1 7 0.0 32.7453 68.6106 65.8957
6922 1 7 0.0 32.9421 68.5594 64.3595
6928 1 7 0.0 33.1489 67.8323 68.7066
6948 1 8 0.0 30.0186 72.8841 67.9887
6917 1 8 0.0 29.0555 69.7649 67.1327
6920 1 1 0.0 30.8004 69.3774 65.696
6916 1 7 0.0 29.8893 69.8172 68.1202
6915 1 7 0.0 31.3773 69.7341 67.8046
6924 1 8 0.0 32.3711 69.4558 63.6408
6919 1 6 0.0 31.7207 69.6816 66.1929
6945 1 7 0.0 32.0028 71.9529 67.0072
6944 1 1 0.0 31.5883 71.5629 64.9557
6943 1 6 0.0 32.2228 71.0743 65.7398
6947 1 8 0.0 30.175 72.8921 65.7452
6946 1 7 0.0 30.5825 72.5183 66.9032
6913 1 6 0.0 32.1589 70.9428 68.2054
6342 1 8 0.0 33.0611 55.9867 71.7308
6341 1 8 0.0 33.1312 54.3007 70.3001
6389 1 8 0.0 32.4034 52.1172 74.0023
6398 1 1 0.0 32.5872 51.8445 70.5938
6388 1 7 0.0 33.2739 51.1282 74.1103
6390 1 8 0.0 33.0996 50.2275 74.974
6372 1 8 0.0 31.6557 57.9221 69.6567
6930 1 8 0.0 32.6636 68.1002 69.8675
6918 1 8 0.0 29.4698 69.936 69.3041
6914 1 1 0.0 31.6856 71.4321 69.0991
12 1 8 0.0 36.2612 30.2119 31.0822
20 1 1 0.0 37.3061 32.895 30.8185
2 1 6 0.0 35.1388 32.3925 31.0688
3 1 6 0.0 36.2421 33.2592 30.8416
14 1 8 0.0 38.3773 35.1399 30.4602
9 1 7 0.0 37.2551 35.5519 30.0767
4 1 6 0.0 36.0485 34.5908 30.3708
5 1 6 0.0 34.7349 35.0286 30.238
21 1 1 0.0 34.6283 36.141 29.9082
13 1 8 0.0 36.972 36.5414 29.3071
1 1 6 0.0 33.8225 32.8787 30.8751
6 1 6 0.0 33.5596 34.219 30.4829
98 1 8 0.0 43.5633 32.1135 30.255
93 1 7 0.0 43.336 33.3796 30.4011
97 1 8 0.0 44.1354 34.281 30.0273
602 1 8 0.0 40.6342 37.3073 29.1993
182 1 8 0.0 47.4441 36.0228 30.697
181 1 8 0.0 49.57 35.4214 30.2607
177 1 7 0.0 48.4241 35.2252 30.7913
266 1 8 0.0 57.1868 34.3409 29.9161
265 1 8 0.0 58.2773 36.149 30.5147
261 1 7 0.0 57.3547 35.314 30.7567
273 1 1 0.0 54.7542 34.4013 31.0133
609 1 1 0.0 38.259 37.6805 30.5883
517 1 8 0.0 34.2601 38.4059 30.5167
1017 1 7 0.0 36.074 41.7768 30.8235
1021 1 8 0.0 36.7845 40.692 30.903
1022 1 8 0.0 36.4311 42.8162 30.2115
597 1 7 0.0 41.0895 37.9917 30.2063
601 1 8 0.0 42.3548 38.0937 30.459
1106 1 8 0.0 40.4756 42.1028 30.0012
592 1 6 0.0 40.1999 38.6894 31.1617
1101 1 7 0.0 41.2016 42.7499 30.8007
1105 1 8 0.0 42.4775 42.964 30.7988
686 1 8 0.0 48.6443 40.1608 30.9401
685 1 8 0.0 50.6048 39.0422 31.0638
1029 1 1 0.0 34.2249 43.9368 30.943
1610 1 8 0.0 38.2409 45.3886 30.2797
1526 1 8 0.0 35.429 47.1666 31.0302
1605 1 7 0.0 39.3545 45.9558 30.4658
1609 1 8 0.0 40.4579 45.4472 30.0289
1701 1 1 0.0 46.5756 48.498 30.9397
1616 1 1 0.0 41.5176 47.7778 31.0591
1695 1 8 0.0 44.1478 48.2791 30.9599
1693 1 8 0.0 49.2957 49.1771 30.7917
1190 1 8 0.0 48.0821 45.1451 31.089
1694 1 8 0.0 50.1537 47.0945 31.1019
8 1 7 0.0 35.383 30.9893 31.5828
11 1 8 0.0 34.4988 30.5986 32.4467
100 1 8 0.0 39.882 30.9461 34.1198
80 1 1 0.0 36.3774 30.6162 36.0051
81 1 1 0.0 34.9115 29.9274 35.2975
70 1 6 0.0 35.3952 30.8778 35.5058
160 1 8 0.0 37.7996 29.6835 37.0966
166 1 1 0.0 44.6537 30.6156 35.9251
184 1 8 0.0 45.1938 30.5969 33.5304
148 1 6 0.0 42.6072 31.1377 36.8311
150 1 6 0.0 40.1898 31.2486 36.8143
163 1 8 0.0 44.8925 29.196 37.4459
187 1 1 0.0 47.3531 29.3797 32.7682
185 1 1 0.0 46.9715 30.1243 34.3562
186 1 1 0.0 48.6357 29.6222 34.1107
175 1 6 0.0 47.7697 30.0629 33.531
180 1 8 0.0 50.4694 30.4505 33.931
242 1 8 0.0 48.5633 30.8449 36.0309
179 1 8 0.0 51.4036 30.996 31.9229
176 1 7 0.0 50.5118 31.1213 32.8349
331 1 8 0.0 60.6718 30.7946 37.4239
507 1 6 0.0 33.4463 36.5103 32.6063
524 1 1 0.0 34.5525 36.6482 32.5051
82 1 1 0.0 35.7246 31.299 34.486
167 1 1 0.0 39.2345 31.7127 36.4273
94 1 7 0.0 39.4202 31.7471 33.2483
99 1 8 0.0 38.3275 31.5392 32.6029
79 1 8 0.0 37.4071 32.3999 35.6529
64 1 6 0.0 34.5625 31.8577 36.3619
102 1 1 0.0 38.8844 35.4798 34.5443
516 1 8 0.0 35.1052 34.3817 33.643
101 1 1 0.0 38.3615 33.8227 34.2996
91 1 6 0.0 38.7255 34.6603 33.7238
103 1 1 0.0 37.9334 35.07 33.105
603 1 8 0.0 36.3227 37.2346 32.0643
586 1 1 0.0 35.1318 36.2997 35.6654
78 1 8 0.0 37.1481 34.5104 36.5383
73 1 7 0.0 36.7859 33.3 36.3413