# LAMMPS data file written by OVITO Basic 3.5.3
3456 atoms
8 atom types
0.0 100.0 xlo xhi
0.0 100.0 ylo yhi
0.0 100.0 zlo zhi

Masses

1 1.00794  # H
2 1.0
3 1.0
4 1.0
5 1.0
6 12.0107  # C
7 14.0067  # N
8 15.9994  # O

Atoms  # full

6394 1 7 0.0 32.1713 49.5261 71.8467
6396 1 8 0.0 32.1566 48.5048 72.6485
6395 1 8 0.0 31.078 49.9558 71.3285
4127 1 8 0.0 32.1146 56.5279 36.3942
4128 1 8 0.0 32.5002 56.6182 34.1578
4126 1 7 0.0 32.9081 56.5553 35.3801
4703 1 8 0.0 32.7877 66.9689 35.7722
4704 1 8 0.0 33.1319 69.2134 35.7048
4085 1 8 0.0 33.1351 50.8252 42.9921
4070 1 1 0.0 30.3458 54.6349 41.6389
4088 1 1 0.0 29.4062 52.6894 42.6914
4087 1 6 0.0 30.2029 53.1317 43.3743
4101 1 7 0.0 30.8694 55.6724 43.4713
4069 1 6 0.0 30.8825 54.31 42.618
4086 1 8 0.0 31.5096 51.2315 41.505
4074 1 8 0.0 31.9861 55.2244 40.3008
4084 1 7 0.0 32.0356 51.3977 42.6823
4071 1 7 0.0 32.3137 54.0906 42.3806
4072 1 7 0.0 32.8417 54.9264 41.2259
4102 1 7 0.0 30.9669 56.9394 42.6592
4104 1 8 0.0 30.2184 57.0517 41.596
4103 1 8 0.0 31.5813 57.9661 43.1265
4044 1 8 0.0 32.4373 60.4613 41.4934
4674 1 8 0.0 29.0882 66.6265 42.9091
4664 1 1 0.0 31.2966 65.4508 37.7672
4645 1 6 0.0 32.3699 66.9282 38.8994
4646 1 1 0.0 32.4128 67.4893 37.9317
4677 1 7 0.0 31.8306 67.9154 39.9832
4663 1 6 0.0 31.5275 65.6763 38.8248
4659 1 7 0.0 32.3091 64.2485 39.3435
4668 1 8 0.0 29.0235 64.4641 38.0464
4665 1 7 0.0 30.3638 65.6794 39.7153
4666 1 7 0.0 29.2827 64.7046 39.2924
4675 1 6 0.0 32.3302 67.3132 41.3139
4667 1 8 0.0 28.7613 63.9191 40.1615
4657 1 6 0.0 32.3392 64.3814 40.8121
4669 1 6 0.0 31.094 65.1784 41.1309
4671 1 7 0.0 31.3436 66.4033 42.0117
4658 1 1 0.0 32.4177 63.3255 41.2212
4672 1 7 0.0 29.9873 67.1199 42.1492
4670 1 1 0.0 30.3417 64.5411 41.6877
4676 1 1 0.0 32.4912 68.3016 41.8622
4673 1 8 0.0 29.7741 68.158 41.4586
4655 1 8 0.0 32.7043 64.2696 43.5035
4678 1 7 0.0 32.3505 69.3382 39.7586
4679 1 8 0.0 32.9995 69.8951 40.7046
4680 1 8 0.0 32.207 69.9475 38.6468
4075 1 6 0.0 32.9665 54.4903 43.8666
4092 1 8 0.0 27.7208 52.0689 44.6034
4083 1 7 0.0 31.1735 52.0043 43.7699
4099 1 6 0.0 32.0221 55.466 44.4991
4081 1 6 0.0 31.9608 52.5466 44.9609
4091 1 8 0.0 28.6331 52.2918 46.614
4090 1 7 0.0 28.6426 52.5267 45.3513
4098 1 8 0.0 29.3428 55.5037 47.0801
4089 1 7 0.0 29.6365 53.5323 44.7216
4094 1 1 0.0 30.6353 53.2834 46.6245
4093 1 6 0.0 30.9564 53.5643 45.5784
4095 1 7 0.0 31.4428 54.9442 45.8581
4096 1 7 0.0 30.2495 55.8491 46.2581
4082 1 1 0.0 32.229 51.6402 45.5566
4077 1 7 0.0 33.3008 53.2538 44.6551
5280 1 8 0.0 33.2186 56.3417 46.8697
4040 1 1 0.0 32.9272 60.2596 43.8381
4100 1 1 0.0 32.478 56.5103 44.7237
4097 1 8 0.0 30.3626 57.0968 45.9151
4037 1 8 0.0 32.5612 60.3425 46.0435
5279 1 8 0.0 32.2285 57.4427 48.5127
5278 1 7 0.0 33.2378 56.7836 48.064
5855 1 8 0.0 30.8263 66.6128 46.134
5862 1 8 0.0 32.1479 64.5655 47.7787
5858 1 1 0.0 31.9462 67.2206 47.9839
5856 1 8 0.0 31.6672 67.4362 44.2252
5853 1 7 0.0 33.1849 67.1216 46.1631
5854 1 7 0.0 31.805 67.1003 45.4701
5857 1 6 0.0 33.0125 67.3295 47.7526
5846 1 1 0.0 32.6345 69.3434 48.5352
5849 1 8 0.0 32.2826 71.1533 46.6532
5850 1 8 0.0 32.5665 70.1466 44.7424
5848 1 7 0.0 32.8819 70.2187 45.9789
5286 1 8 0.0 32.8512 56.2081 51.3894
5814 1 8 0.0 30.6797 60.2742 55.7154
5816 1 1 0.0 30.7572 62.1966 53.9765
5811 1 7 0.0 32.2053 62.2468 55.6586
5820 1 8 0.0 28.4774 62.668 54.9135
5815 1 6 0.0 31.4224 62.9189 54.5059
5817 1 7 0.0 30.4548 63.9715 55.1443
5818 1 7 0.0 29.2206 63.3205 55.7397
5797 1 6 0.0 32.3816 63.5857 53.4724
5829 1 7 0.0 32.1126 65.0344 53.3331
5798 1 1 0.0 32.2006 63.0671 52.4879
5825 1 8 0.0 31.0565 67.2491 53.9789
5824 1 7 0.0 30.8889 66.8198 55.1614
5823 1 7 0.0 31.9852 65.9171 55.7609
5826 1 8 0.0 29.6725 66.6531 55.6021
5821 1 6 0.0 31.3705 64.5607 56.2341
5832 1 8 0.0 32.2905 65.2953 50.9171
5830 1 7 0.0 32.6246 65.7445 52.0585
5827 1 6 0.0 32.9804 65.625 54.647
5769 1 7 0.0 33.2699 69.6098 53.5221
5772 1 8 0.0 31.0681 69.361 52.4097
5770 1 7 0.0 32.3595 69.5399 52.2688
5787 1 7 0.0 32.9687 72.1695 52.756
5788 1 7 0.0 32.7981 73.6543 52.3178
5791 1 6 0.0 32.4634 71.9764 54.1903
5792 1 1 0.0 31.3451 72.1951 54.1331
5767 1 6 0.0 32.6551 70.4315 54.6173
5768 1 1 0.0 31.669 69.9772 54.9232
5789 1 8 0.0 31.8601 74.2766 52.9127
5793 1 7 0.0 33.2189 72.7763 55.1848
5771 1 8 0.0 32.8908 69.2323 51.1543
5795 1 8 0.0 31.0564 73.423 56.0511
5794 1 7 0.0 32.3368 73.5319 56.1755
5790 1 8 0.0 33.2362 74.0892 51.1796
5248 1 7 0.0 33.2825 52.6778 58.4369
5250 1 8 0.0 32.6164 52.6981 59.511
5249 1 8 0.0 32.778 53.0989 57.3242
5812 1 7 0.0 31.3041 61.2198 56.3505
5813 1 8 0.0 31.3883 61.2548 57.6242
6972 1 8 0.0 31.7074 62.0549 61.2184
5189 1 8 0.0 32.9524 57.4595 58.9551
6966 1 8 0.0 32.6533 59.7433 62.4417
5192 1 1 0.0 33.2561 59.2429 57.0928
6971 1 8 0.0 29.8782 62.7109 62.3488
6970 1 7 0.0 31.1665 62.6084 62.2344
5809 1 6 0.0 32.4309 63.4963 56.5819
5819 1 8 0.0 28.9801 63.406 57.0118
5810 1 1 0.0 32.2422 63.0765 57.6115
5822 1 1 0.0 30.6731 64.8344 57.0822
7008 1 8 0.0 31.342 67.2676 59.1877
7006 1 7 0.0 32.4949 67.4619 58.6904
7010 1 1 0.0 32.3681 67.3388 61.2175
7014 1 8 0.0 32.1844 64.8655 61.6335
7007 1 8 0.0 32.614 67.9174 57.4864
5765 1 8 0.0 31.2154 70.4925 56.8963
5764 1 7 0.0 32.4781 70.6204 57.1526
5796 1 8 0.0 32.8981 74.2459 57.0617
5766 1 8 0.0 32.9494 70.7593 58.3441
6998 1 1 0.0 33.306 69.5196 61.6114
6402 1 8 0.0 32.4589 51.1426 68.1584
6371 1 8 0.0 31.6463 56.7204 67.7706
6965 1 8 0.0 31.1555 59.2239 64.0252
6959 1 8 0.0 32.1623 59.6349 67.2695
6958 1 7 0.0 32.7593 60.715 67.6072
6962 1 1 0.0 30.8426 60.9836 65.5833
6957 1 7 0.0 32.2737 61.9906 66.8559
6961 1 6 0.0 31.7292 61.6723 65.4582
6964 1 7 0.0 32.1396 59.9123 63.6178
6963 1 7 0.0 32.7704 61.0122 64.5082
6370 1 7 0.0 32.2489 57.4962 68.5895
6967 1 6 0.0 33.2475 62.2233 63.7064
6974 1 1 0.0 30.1438 62.9062 64.5855
6973 1 6 0.0 31.2275 62.9658 64.7955
6969 1 7 0.0 32.0377 63.0758 63.4197
6929 1 8 0.0 33.0714 66.6804 68.1563
6978 1 8 0.0 30.1587 65.3014 63.8657
6976 1 7 0.0 30.8425 65.3953 64.9792
6977 1 8 0.0 31.1541 66.5803 65.4038
6975 1 7 0.0 31.4078 64.1668 65.6649
6979 1 6 0.0 32.923 64.3418 66.0126
6980 1 1 0.0 33.0371 65.2402 66.6145
6921 1 7 0.0 32.7453 68.6106 65.8957
6922 1 7 0.0 32.9421 68.5594 64.3595
6928 1 7 0.0 33.1489 67.8323 68.7066
6948 1 8 0.0 30.0186 72.8841 67.9887
6917 1 8 0.0 29.0555 69.7649 67.1327
6920 1 1 0.0 30.8004 69.3774 65.696
6916 1 7 0.0 29.8893 69.8172 68.1202
6915 1 7 0.0 31.3773 69.7341 67.8046
6924 1 8 0.0 32.3711 69.4558 63.6408
6919 1 6 0.0 31.7207 69.6816 66.1929
6945 1 7 0.0 32.0028 71.9529 67.0072
6944 1 1 0.0 31.5883 71.5629 64.9557
6943 1 6 0.0 32.2228 71.0743 65.7398
6947 1 8 0.0 30.175 72.8921 65.7452
6946 1 7 0.0 30.5825 72.5183 66.9032
6913 1 6 0.0 32.1589 70.9428 68.2054
6342 1 8 0.0 33.0611 55.9867 71.7308
6341 1 8 0.0 33.1312 54.3007 70.3001
6389 1 8 0.0 32.4034 52.1172 74.0023
6398 1 1 0.0 32.5872 51.8445 70.5938
6388 1 7 0.0 33.2739 51.1282 74.1103
6390 1 8 0.0 33.0996 50.2275 74.974
6372 1 8 0.0 31.6557 57.9221 69.6567
6930 1 8 0.0 32.6636 68.1002 69.8675
6918 1 8 0.0 29.4698 69.936 69.3041
6914 1 1 0.0 31.6856 71.4321 69.0991
5226 1 8 0.0 37.8401 49.2972 54.7089
5243 1 8 0.0 33.8762 49.4615 61.4457
5235 1 7 0.0 36.9223 49.5896 59.3601
5221 1 6 0.0 35.9364 49.7116 56.9799
5237 1 8 0.0 37.4964 49.2011 61.6859
5222 1 1 0.0 35.9125 48.7627 56.3129
5244 1 8 0.0 33.5831 47.8221 59.9206
5240 1 1 0.0 35.6732 48.1336 58.4781
5238 1 8 0.0 36.8418 47.4178 60.5339
5236 1 7 0.0 37.0115 48.6831 60.6293
5239 1 6 0.0 35.7553 49.2688 58.4506
5242 1 7 0.0 33.8868 49.0622 60.2128
5241 1 7 0.0 34.4964 49.893 59.1059
6407 1 8 0.0 37.0343 49.2334 68.1676
6534 1 8 0.0 40.273 49.2974 66.6529
6532 1 7 0.0 40.7806 49.7761 67.747
6406 1 7 0.0 36.8626 48.9239 69.3927
6373 1 6 0.0 36.0799 49.6809 71.6925
6393 1 7 0.0 33.5378 49.8511 71.2495
6405 1 7 0.0 35.8725 49.7396 70.209
6391 1 6 0.0 34.6451 49.8667 72.296
6408 1 8 0.0 37.2808 47.8294 69.9104
6374 1 1 0.0 36.5171 48.694 72.0262
6392 1 1 0.0 34.4052 49.0826 73.0955
6378 1 8 0.0 38.9177 49.3733 71.733
6527 1 8 0.0 43.5248 49.9143 70.2594
6533 1 8 0.0 40.7326 49.0711 68.8311
5118 1 8 0.0 64.2042 68.2087 24.7521
5130 1 8 0.0 62.7775 71.7047 24.3616
4254 1 8 0.0 45.5399 51.9704 29.9953
4252 1 7 0.0 45.98 52.9487 30.6903
4266 1 8 0.0 41.8331 54.2115 31.1482
4265 1 8 0.0 43.4256 55.7623 31.2346
4253 1 8 0.0 47.106 53.5036 30.4218
4428 1 8 0.0 57.1757 53.8626 30.2837
4394 1 1 0.0 56.4775 55.9186 29.1351
4398 1 8 0.0 58.7484 55.6509 29.0326
4560 1 8 0.0 60.8024 53.3831 29.5947
4558 1 7 0.0 61.2377 53.5805 30.7795
4557 1 7 0.0 62.6582 54.1332 30.9525
4556 1 1 0.0 63.2197 53.2254 29.1018
4555 1 6 0.0 63.4351 54.1745 29.6453
4537 1 6 0.0 65.0035 54.3848 29.8507
4551 1 7 0.0 62.7068 55.2295 28.854
4554 1 8 0.0 64.2538 54.932 26.9751
4538 1 1 0.0 65.5411 53.4672 29.5441
4539 1 7 0.0 65.3891 55.6799 29.2267
4552 1 7 0.0 63.2801 55.5861 27.464
4296 1 8 0.0 45.7203 60.0507 30.9107
4294 1 7 0.0 46.6266 60.8723 30.5191
4415 1 8 0.0 52.4292 57.7031 28.9319
4310 1 1 0.0 50.4757 60.1035 30.6771
4295 1 8 0.0 46.9787 61.0267 29.3036
4416 1 8 0.0 51.7477 58.3078 30.9526
4414 1 7 0.0 52.5642 57.6613 30.1998
4307 1 8 0.0 52.8489 60.5946 31.2377
4298 1 1 0.0 49.1955 62.0078 30.2654
4412 1 1 0.0 54.5319 57.3541 28.767
4413 1 7 0.0 53.9393 57.2201 30.7006
4411 1 6 0.0 55.0037 57.5423 29.7207
4407 1 7 0.0 55.3168 59.0482 29.8301
4393 1 6 0.0 56.2493 56.6087 30.0211
4395 1 7 0.0 57.5468 57.3355 30.2802
4410 1 8 0.0 56.9089 58.5355 28.1128
4408 1 7 0.0 56.5354 59.4712 28.953
4409 1 8 0.0 57.1963 60.5311 29.2226
4460 1 1 0.0 59.0686 60.9084 28.3679
4396 1 7 0.0 58.7615 56.4391 30.0345
4463 1 8 0.0 59.3181 59.3104 30.2113
4462 1 7 0.0 59.5874 60.3413 30.9528
4459 1 6 0.0 59.4439 61.8701 28.7632
4397 1 8 0.0 59.8737 56.7443 30.6489
4433 1 8 0.0 56.2467 62.0104 30.8856
4461 1 7 0.0 60.0994 61.6148 30.2602
4545 1 7 0.0 63.6647 57.4832 29.7916
4549 1 6 0.0 62.5788 56.4192 29.9344
4550 1 1 0.0 61.556 56.8582 29.7028
4553 1 8 0.0 62.7955 56.6374 26.8925
4457 1 8 0.0 61.657 60.2121 28.3672
4456 1 7 0.0 61.6086 61.2148 27.5735
4458 1 8 0.0 62.0685 61.1258 26.3693
4451 1 8 0.0 63.7944 62.24 29.2569
4543 1 6 0.0 64.981 56.8 30.2248
4544 1 1 0.0 65.8072 57.5456 30.3118
4547 1 8 0.0 62.1123 58.8304 31.0935
4546 1 7 0.0 63.3233 58.6497 30.7165
4455 1 7 0.0 60.5071 62.302 27.8157
4452 1 8 0.0 62.7842 62.0514 31.2082
4548 1 8 0.0 64.3008 59.4023 31.1034
4151 1 8 0.0 39.6122 62.94 30.7052
4715 1 8 0.0 36.7518 66.9631 30.0793
4714 1 7 0.0 36.4255 68.0032 30.7449
4826 1 1 0.0 44.5366 66.3354 29.5013
4860 1 8 0.0 44.8703 64.0528 29.6167
4825 1 6 0.0 44.9465 66.675 30.5606
4848 1 8 0.0 41.9917 65.968 31.2064
4858 1 7 0.0 45.0285 64.1074 30.8885
4843 1 6 0.0 44.1151 67.9184 31.0769
4844 1 1 0.0 43.4547 68.318 30.3047
4827 1 7 0.0 46.3578 67.0243 30.6776
4990 1 7 0.0 51.4509 65.5128 30.648
4992 1 8 0.0 51.4706 64.7874 29.5749
4830 1 8 0.0 46.7938 66.1978 28.4468
4828 1 7 0.0 47.2741 66.3285 29.6238
4989 1 7 0.0 51.866 66.9796 30.5655
4829 1 8 0.0 48.537 66.3324 29.8475
4988 1 1 0.0 51.2163 67.559 28.518
4987 1 6 0.0 52.1631 67.416 29.1734
4970 1 1 0.0 52.7389 66.2544 27.4578
4969 1 6 0.0 53.2168 66.5965 28.4007
4436 1 1 0.0 57.2765 62.6227 28.6447
4440 1 8 0.0 57.6103 62.7542 26.3997
4435 1 6 0.0 58.3553 62.9108 28.9279
4437 1 7 0.0 58.508 64.1692 28.1516
4438 1 7 0.0 58.332 63.7758 26.6742
5003 1 8 0.0 55.4131 63.6418 28.8928
4431 1 7 0.0 58.3385 63.1938 30.6397
4444 1 7 0.0 58.7756 65.7143 30.4788
4439 1 8 0.0 58.7918 64.5609 25.7648
5002 1 7 0.0 54.4324 64.2652 28.3754
5004 1 8 0.0 53.6615 63.6785 27.5454
5000 1 1 0.0 55.6725 65.5306 30.3405
4445 1 8 0.0 57.7496 66.0858 29.7704
5001 1 7 0.0 53.7822 65.4703 29.1705
4999 1 6 0.0 54.8112 66.1954 30.1015
4975 1 6 0.0 55.2796 67.5087 29.3455
4976 1 1 0.0 56.3523 67.4872 29.0947
4971 1 7 0.0 54.4772 67.5087 28.0676
4972 1 7 0.0 55.3655 66.8288 27.0192
5136 1 8 0.0 59.4138 67.9549 26.7566
4974 1 8 0.0 54.8872 66.5722 25.8598
4429 1 6 0.0 59.7323 62.8697 31.0121
4973 1 8 0.0 56.553 66.4781 27.3839
4441 1 6 0.0 59.9417 64.6879 28.4569
5135 1 8 0.0 58.7555 68.5069 28.8472
4443 1 7 0.0 60.0792 65.2579 29.8495
4442 1 1 0.0 60.139 65.5614 27.7464
4447 1 6 0.0 60.7361 64.0507 30.5819
4453 1 6 0.0 61.1033 63.6407 28.3237
4449 1 7 0.0 61.8403 63.658 29.6046
4454 1 1 0.0 61.7875 63.7722 27.4371
4579 1 6 0.0 65.2739 65.0619 29.306
4580 1 1 0.0 64.2508 64.607 29.4059
4581 1 7 0.0 65.3402 65.9108 28.0788
4604 1 1 0.0 65.8277 62.9775 29.3524
5147 1 8 0.0 62.7752 66.1511 28.3263
4450 1 7 0.0 62.8026 62.5409 30.0292
4584 1 8 0.0 64.0888 64.1831 26.9056
4582 1 7 0.0 64.9476 65.114 26.8157
5148 1 8 0.0 62.1104 66.4406 26.2515
5146 1 7 0.0 62.3845 66.9342 27.3852
5141 1 8 0.0 60.7072 67.8621 30.5912
4575 1 7 0.0 65.5396 65.9365 30.605
4589 1 8 0.0 64.846 68.0952 29.3104
5145 1 7 0.0 61.8031 68.3377 27.6906
5114 1 1 0.0 61.8467 68.5859 25.4216
5144 1 1 0.0 62.9438 68.4395 29.6729
4583 1 8 0.0 65.5253 65.3682 25.6825
4588 1 7 0.0 66.0643 68.2781 29.6497
4603 1 6 0.0 66.3368 63.9539 29.3052
4716 1 8 0.0 36.0947 69.0945 30.1655
4742 1 1 0.0 43.4434 73.207 30.7333
4746 1 8 0.0 43.1752 70.4333 30.533
4842 1 8 0.0 46.0363 69.3387 29.3284
4840 1 7 0.0 46.1412 69.6291 30.6017
4983 1 7 0.0 52.6535 69.1011 29.5608
4986 1 8 0.0 52.8829 69.6074 27.2179
4874 1 1 0.0 47.9031 73.1358 30.0873
4884 1 8 0.0 52.0972 72.0786 30.0127
4875 1 7 0.0 49.7849 74.1211 30.332
4873 1 6 0.0 48.5832 73.4815 30.8985
4883 1 8 0.0 51.1885 70.1488 30.8199
4882 1 7 0.0 51.3979 71.4098 30.8729
4880 1 1 0.0 51.8197 73.8964 30.9861
4841 1 8 0.0 47.2737 69.949 31.0622
4984 1 7 0.0 53.3382 69.8038 28.4083
4981 1 6 0.0 53.6393 68.8069 30.6471
5134 1 7 0.0 59.1871 68.8367 27.6873
4977 1 7 0.0 55.1415 68.771 30.2377
5039 1 8 0.0 56.9447 71.531 29.2734
4985 1 8 0.0 54.3483 70.576 28.6913
5036 1 1 0.0 56.5872 73.7217 29.0176
5033 1 8 0.0 58.857 73.5715 27.6653
5035 1 6 0.0 57.0803 74.357 29.8267
5012 1 1 0.0 54.9237 74.923 30.2266
5038 1 7 0.0 57.3168 71.8764 30.4599
5037 1 7 0.0 57.6602 73.3276 30.8114
5032 1 7 0.0 59.0743 74.7133 28.2371
5133 1 7 0.0 59.7988 70.2038 27.4783
5138 1 1 0.0 59.9723 71.3994 29.3367
5009 1 8 0.0 54.0863 73.188 31.2057
5116 1 7 0.0 64.4281 68.8644 25.8502
5117 1 8 0.0 65.5571 68.96 26.4181
5119 1 6 0.0 63.5042 70.0101 28.1254
5120 1 1 0.0 64.5827 69.9621 28.3254
5121 1 7 0.0 63.2532 71.4766 28.3035
5125 1 6 0.0 61.7055 71.7659 27.9244
5126 1 1 0.0 61.469 72.878 28.1324
5137 1 6 0.0 60.7223 70.8585 28.6081
5139 1 7 0.0 61.46 69.9745 29.5857
5143 1 6 0.0 62.5274 69.0843 28.8272
5122 1 7 0.0 63.6568 71.922 29.7061
5124 1 8 0.0 64.321 71.0309 30.4046
5127 1 7 0.0 61.4431 71.7029 26.4318
5115 1 7 0.0 63.3241 69.7244 26.4528
5131 1 6 0.0 60.8545 70.2656 26.3064
5113 1 6 0.0 61.9259 69.2141 26.3371
5132 1 1 0.0 60.2805 70.169 25.3667
5129 1 8 0.0 62.859 73.5369 25.5826
5140 1 7 0.0 60.5021 69.1431 30.4607
5123 1 8 0.0 63.309 73.0208 30.234
5027 1 8 0.0 61.0454 74.2333 29.877
5026 1 7 0.0 60.2753 74.0689 30.9148
5128 1 7 0.0 62.4555 72.3316 25.4524
4590 1 8 0.0 66.3735 69.1496 30.5374
4727 1 8 0.0 40.0535 76.7901 30.4888
4730 1 1 0.0 42.2501 75.2234 30.484
4733 1 8 0.0 44.1223 76.2286 31.0609
4877 1 8 0.0 48.4167 75.9847 29.6045
4876 1 7 0.0 49.5348 75.5989 30.0659
4878 1 8 0.0 50.42 76.5164 30.3995
5011 1 6 0.0 55.9141 75.0966 30.6331
5031 1 7 0.0 58.0844 75.3091 29.2706
5030 1 1 0.0 59.4173 76.895 29.9572
5029 1 6 0.0 58.7108 76.1112 30.3673
5013 1 7 0.0 56.2193 76.6032 30.583
5018 1 1 0.0 57.5564 77.9313 31.1459
5017 1 6 0.0 57.5808 76.8385 31.1443
5034 1 8 0.0 60.0096 75.4535 27.7447
4137 1 7 0.0 36.6484 54.696 35.5818
4106 1 1 0.0 36.7008 55.4181 33.5934
4105 1 6 0.0 36.6078 55.8498 34.5721
4135 1 6 0.0 36.9983 55.2965 36.9068
4138 1 7 0.0 37.4712 53.5263 35.0726
4140 1 8 0.0 37.8117 53.4912 33.8318
4139 1 8 0.0 37.8745 52.6681 35.9184
4110 1 8 0.0 39.1811 56.0301 33.102
4109 1 8 0.0 39.9428 55.7074 35.1954
4125 1 7 0.0 34.3134 56.011 35.6288
4250 1 1 0.0 44.3878 51.6902 32.1366
4272 1 8 0.0 41.2791 52.3769 35.3733
4270 1 7 0.0 42.2612 53.1402 35.7037
4268 1 1 0.0 42.5867 52.3653 33.378
4269 1 7 0.0 43.6293 53.1103 35.0332
4267 1 6 0.0 43.4383 53.0659 33.5805
4249 1 6 0.0 44.6455 52.5846 32.7508
4263 1 7 0.0 42.9237 54.5772 33.2934
4271 1 8 0.0 42.0627 54.0178 36.6405
4281 1 7 0.0 45.9112 52.3904 33.689
4274 1 1 0.0 44.0276 55.0183 36.147
4273 1 6 0.0 44.3887 54.586 35.1746
4261 1 6 0.0 43.9875 55.3868 33.9702
4251 1 7 0.0 45.077 53.6079 31.7666
4264 1 7 0.0 42.6149 54.9456 31.8203
4275 1 7 0.0 45.9153 54.3723 35.2615
4257 1 7 0.0 45.2599 55.8357 33.0875
4278 1 8 0.0 45.5356 53.1911 37.3411
4276 1 7 0.0 46.3684 53.4174 36.3774
4279 1 6 0.0 46.4234 53.8308 33.9331
4255 1 6 0.0 45.9599 54.604 32.6645
4284 1 8 0.0 46.5626 50.4341 32.4335
4256 1 1 0.0 46.8063 55.0116 32.0193
4282 1 7 0.0 46.9745 51.5472 32.9521
4277 1 8 0.0 47.496 52.8306 36.3168
4358 1 1 0.0 49.9933 53.6931 36.9041
4280 1 1 0.0 47.5274 53.8399 34.038
4390 1 7 0.0 51.1366 55.9445 36.3251
4392 1 8 0.0 50.7794 55.4461 35.2075
4380 1 8 0.0 47.5405 55.9359 37.0501
4362 1 8 0.0 52.2781 53.2565 36.4887
4283 1 8 0.0 48.2392 51.8185 32.982
4426 1 7 0.0 57.041 54.5217 31.3683
4425 1 7 0.0 56.0906 55.7597 31.2973
4427 1 8 0.0 57.8049 54.3935 32.3889
4516 1 7 0.0 56.7557 51.4562 37.211
4518 1 8 0.0 56.5033 51.1951 35.9858
4502 1 1 0.0 57.8128 53.994 34.6669
4501 1 6 0.0 58.0231 53.9791 35.7561
4519 1 6 0.0 56.7938 54.0611 36.6374
4520 1 1 0.0 55.8192 54.1403 36.0365
4533 1 7 0.0 58.9722 55.1981 35.8995
4503 1 7 0.0 58.9376 52.7872 36.07
4422 1 8 0.0 54.5363 55.4224 34.3429
4536 1 8 0.0 59.4983 55.9998 33.6227
4424 1 1 0.0 56.8564 56.2095 33.2533
4507 1 6 0.0 59.7948 53.313 37.33
4531 1 6 0.0 59.7982 54.8719 37.1873
4506 1 8 0.0 59.2379 52.3383 33.7564
4534 1 7 0.0 59.9258 55.4797 34.7105
4504 1 7 0.0 59.8373 52.4642 34.8782
4559 1 8 0.0 60.4631 53.6307 31.7947
4566 1 8 0.0 63.5773 54.148 33.4683
4505 1 8 0.0 61.0878 52.1993 35.0138
4532 1 1 0.0 60.849 55.3065 37.0091
4564 1 7 0.0 63.6142 55.4289 33.5528
4562 1 1 0.0 61.6344 55.8705 31.911
4565 1 8 0.0 64.2761 55.9407 34.5216
4569 1 7 0.0 65.2899 54.5821 31.3242
4561 1 6 0.0 62.554 55.7032 31.2584
4567 1 6 0.0 64.8888 56.1318 31.5841
4508 1 1 0.0 60.8696 52.9786 37.2473
4535 1 8 0.0 61.181 55.2947 34.8526
4108 1 7 0.0 39.1301 56.2777 34.3388
4112 1 1 0.0 38.8623 56.6722 36.8596
4152 1 8 0.0 37.9605 61.6854 31.4774
4150 1 7 0.0 39.0297 62.362 31.6871
4111 1 6 0.0 37.7825 56.5806 36.5563
4107 1 7 0.0 37.8055 56.7546 34.9875
4129 1 6 0.0 34.8757 56.6696 36.9506
4123 1 6 0.0 35.2956 56.6579 34.597
4124 1 1 0.0 34.8881 56.6615 33.5166
4119 1 7 0.0 35.4087 58.0948 35.0435
4120 1 7 0.0 36.5432 58.8199 34.2945
4122 1 8 0.0 36.7201 58.6175 33.0446
4117 1 6 0.0 35.6664 57.9362 36.6066
4118 1 1 0.0 35.2514 58.845 37.1407
4121 1 8 0.0 37.3114 59.5809 34.9839
4113 1 7 0.0 37.1243 57.848 37.0897
4144 1 7 0.0 38.0343 62.2858 36.652
4148 1 1 0.0 38.0452 61.3623 33.9456
4145 1 8 0.0 36.8501 62.2255 36.1205
4147 1 6 0.0 39.0772 61.786 34.1478
4175 1 8 0.0 39.4825 58.5221 36.1842
4172 1 1 0.0 39.5753 59.5308 34.1909
4174 1 7 0.0 39.804 59.6538 36.6409
4258 1 7 0.0 46.1943 56.8531 33.7629
4262 1 1 0.0 43.4653 56.3429 34.2258
4169 1 8 0.0 41.5448 58.4215 33.9355
4187 1 8 0.0 43.4785 57.1338 36.4616
4163 1 8 0.0 43.7269 59.8639 34.8544
4168 1 7 0.0 41.9324 59.345 33.1625
4170 1 8 0.0 42.7847 59.0159 32.2418
4171 1 6 0.0 40.0092 60.5907 34.319
4173 1 7 0.0 40.5931 60.6206 35.7347
4186 1 7 0.0 43.0698 57.9693 37.3513
4162 1 7 0.0 43.3633 60.951 35.4259
4167 1 7 0.0 41.063 60.6249 33.1874
4142 1 1 0.0 40.5346 61.9896 37.3534
4141 1 6 0.0 40.5318 62.0959 36.1981
4164 1 8 0.0 43.4392 61.1375 36.6972
4165 1 6 0.0 41.8338 61.9183 33.2303
4161 1 7 0.0 42.6601 62.0396 34.6084
4166 1 1 0.0 42.5043 61.7773 32.3107
4292 1 1 0.0 46.1978 60.8418 33.102
4190 1 1 0.0 45.9378 58.323 37.3843
4259 1 8 0.0 45.7609 57.8752 34.4203
4289 1 8 0.0 45.7232 61.5314 35.2587
4297 1 6 0.0 49.0829 61.7049 31.3122
4293 1 7 0.0 47.5586 61.5713 31.5672
4421 1 8 0.0 52.9286 56.4723 33.2263
4260 1 8 0.0 47.4237 56.8501 33.386
4391 1 8 0.0 52.2749 56.5865 36.405
4309 1 6 0.0 49.8548 60.416 31.5944
4313 1 8 0.0 49.9515 56.9287 32.14
4311 1 7 0.0 49.0249 59.2502 31.9742
4314 1 8 0.0 50.7225 58.424 33.5429
4312 1 7 0.0 49.9527 58.1421 32.5289
4319 1 8 0.0 47.8088 58.4236 35.8134
4320 1 8 0.0 48.9924 60.0206 36.8077
4316 1 1 0.0 47.4393 58.9018 33.4216
4318 1 7 0.0 48.544 59.5039 35.7433
4332 1 8 0.0 51.7399 60.7814 35.196
4315 1 6 0.0 48.1436 59.7567 33.1672
4317 1 7 0.0 49.0172 60.0446 34.4098
4291 1 6 0.0 47.3323 61.0251 32.945
4305 1 7 0.0 50.9953 60.8654 32.838
4285 1 6 0.0 49.1938 61.557 34.3904
4306 1 7 0.0 52.414 61.095 32.3615
4303 1 6 0.0 50.3139 62.0464 33.3787
4330 1 7 0.0 52.5182 59.8436 35.581
4329 1 7 0.0 52.4786 59.362 37.0477
4308 1 8 0.0 53.3075 61.6465 33.0914
4287 1 7 0.0 47.8219 62.0908 34.0916
4331 1 8 0.0 53.2582 59.1901 34.778
4288 1 7 0.0 46.8289 62.1866 35.2913
4286 1 1 0.0 49.4073 61.9156 35.487
4420 1 7 0.0 54.1271 56.4127 33.5925
4432 1 7 0.0 57.3193 62.4354 31.5018
4418 1 1 0.0 53.6566 58.8278 32.44
4405 1 6 0.0 55.4412 59.2986 31.3304
4406 1 1 0.0 55.1311 60.4253 31.6272
4399 1 6 0.0 57.343 57.8245 31.7317
4417 1 6 0.0 54.491 58.2665 31.9233
4401 1 7 0.0 56.9213 59.2311 31.9097
4464 1 8 0.0 59.313 60.3803 32.1939
4423 1 6 0.0 56.3513 56.7371 32.3784
4400 1 1 0.0 58.4282 57.7701 32.1805
4419 1 7 0.0 55.1324 57.4255 32.9951
4334 1 1 0.0 54.16 58.0542 36.639
4402 1 7 0.0 56.8565 59.6229 33.3885
4404 1 8 0.0 57.7664 59.2419 34.2092
4522 1 7 0.0 56.9118 56.7233 36.8802
4524 1 8 0.0 56.7292 56.8838 35.6193
4346 1 1 0.0 55.8039 59.835 36.6694
4403 1 8 0.0 55.7991 60.2172 33.8289
4347 1 7 0.0 54.37 61.3083 37.0323
4333 1 6 0.0 53.9066 58.8731 37.4179
4434 1 8 0.0 57.5775 62.2673 32.7288
4345 1 6 0.0 54.989 59.9495 37.4325
4350 1 8 0.0 56.5306 62.1996 36.3875
4529 1 8 0.0 59.4806 57.5275 37.182
4348 1 7 0.0 55.3233 62.4389 36.7351
5093 1 8 0.0 59.921 62.242 35.5788
4568 1 1 0.0 65.6212 56.5504 32.3103
4476 1 8 0.0 61.0614 59.7822 33.9274
4607 1 8 0.0 65.7497 62.3313 31.3839
4563 1 7 0.0 63.5578 56.2876 32.297
4473 1 7 0.0 61.7839 58.6716 35.9974
4474 1 7 0.0 61.5057 58.7036 34.4827
4475 1 8 0.0 61.899 57.6866 33.7848
4477 1 6 0.0 63.1414 58.1405 36.3202
4478 1 1 0.0 63.231 57.1811 35.805
4490 1 1 0.0 64.971 58.6059 35.0378
4472 1 1 0.0 60.5915 60.4552 36.2059
4471 1 6 0.0 61.6325 60.1078 36.5715
4489 1 6 0.0 64.275 59.1348 35.7822
4485 1 7 0.0 65.1383 59.6097 36.9993
4491 1 7 0.0 63.7088 60.3081 35.0452
4495 1 6 0.0 62.7417 61.0626 36.0092
4496 1 1 0.0 62.2612 61.9853 35.488
4492 1 7 0.0 64.8177 61.2602 34.5993
4494 1 8 0.0 65.9003 60.7332 34.1625
4486 1 7 0.0 66.403 58.7113 37.1459
4497 1 7 0.0 63.4584 61.5796 37.2587
4487 1 8 0.0 66.534 57.7324 36.3155
4143 1 7 0.0 39.2223 62.609 35.7545
4149 1 7 0.0 39.4681 62.8135 33.1113
4712 1 1 0.0 37.3678 65.9839 32.1015
4713 1 7 0.0 36.1411 67.7736 32.2538
4711 1 6 0.0 36.9977 66.7044 32.8992
4701 1 7 0.0 34.678 67.75 34.5032
4687 1 6 0.0 38.1491 67.4982 33.5915
4688 1 1 0.0 39.1853 67.2505 33.2144
4709 1 8 0.0 34.9565 65.1554 31.9654
4689 1 7 0.0 38.2213 67.1381 35.0562
4707 1 7 0.0 36.2462 65.7498 33.9369
4708 1 7 0.0 35.1027 65.0139 33.2199
4710 1 8 0.0 34.3405 64.2402 33.961
4705 1 6 0.0 35.7686 66.5915 35.0566
4693 1 6 0.0 36.8622 67.3295 35.7704
4690 1 7 0.0 39.4461 67.7124 35.7721
4706 1 1 0.0 35.1707 65.9569 35.744
4157 1 8 0.0 39.2313 65.0503 34.1996
4158 1 8 0.0 39.981 64.9614 36.3165
4694 1 1 0.0 37.1072 67.1253 36.8362
4702 1 7 0.0 33.4959 67.998 35.472
4662 1 8 0.0 33.6694 64.4709 37.328
4691 1 8 0.0 39.5157 67.5767 37.0284
4846 1 7 0.0 42.3209 66.4868 32.3545
4692 1 8 0.0 40.5276 67.9475 35.0977
4153 1 6 0.0 40.9697 63.1678 33.2155
4154 1 1 0.0 41.1751 63.8278 32.2895
4155 1 7 0.0 41.3385 63.9378 34.5645
4159 1 6 0.0 41.7391 62.8704 35.5408
4156 1 7 0.0 40.1766 64.822 35.0484
4853 1 8 0.0 44.2551 64.2093 34.4701
4852 1 7 0.0 44.0807 65.4826 34.634
4854 1 8 0.0 43.1773 65.9854 35.3756
4160 1 1 0.0 42.4424 63.2376 36.389
4847 1 8 0.0 41.8631 66.0572 33.4615
4857 1 7 0.0 44.8214 65.4735 31.5541
4851 1 7 0.0 45.1031 66.4483 33.9468
4855 1 6 0.0 45.8033 65.7721 32.7482
4845 1 7 0.0 43.3437 67.6358 32.3956
4859 1 8 0.0 45.1966 63.0601 31.6305
4956 1 8 0.0 45.9522 65.6414 37.4336
4856 1 1 0.0 46.3893 64.8692 33.0468
4849 1 6 0.0 44.4555 67.7146 33.4553
4850 1 1 0.0 43.9338 68.1375 34.3665
4837 1 6 0.0 45.5371 68.7426 32.95
4301 1 8 0.0 47.9108 64.3394 31.719
4991 1 8 0.0 51.1454 64.9754 31.7667
4290 1 8 0.0 47.185 62.8851 36.3031
4304 1 1 0.0 51.0492 62.6856 33.9329
4993 1 6 0.0 53.1279 67.4999 31.3642
4299 1 7 0.0 49.7693 62.839 32.1872
4952 1 1 0.0 47.8839 64.8249 36.5739
4950 1 8 0.0 49.9319 62.9105 37.2127
4300 1 7 0.0 48.8274 63.9818 32.5505
4302 1 8 0.0 48.9743 64.5827 33.6709
4951 1 6 0.0 48.7245 65.3576 37.1482
4933 1 6 0.0 50.1035 65.569 36.3649
4934 1 1 0.0 50.0631 65.0642 35.4135
4832 1 1 0.0 47.8229 66.3797 32.2807
4965 1 7 0.0 50.3588 67.0319 36.2333
4831 1 6 0.0 46.7968 66.8161 32.1691
4994 1 1 0.0 52.6752 67.6422 32.4183
4836 1 8 0.0 48.3956 67.0933 34.5897
4968 1 8 0.0 50.9939 67.1241 33.8651
4966 1 7 0.0 51.3066 67.4204 35.0656
4938 1 8 0.0 52.3819 63.7558 35.3117
4936 1 7 0.0 52.4629 64.7725 36.1058
4998 1 8 0.0 53.2378 65.3397 33.2914
4935 1 7 0.0 51.3167 64.9629 37.0938
4833 1 7 0.0 46.958 68.1404 32.9127
4834 1 7 0.0 47.4934 67.9631 34.3435
4967 1 8 0.0 52.3084 68.1314 35.4608
4964 1 1 0.0 51.7246 68.1991 37.4819
4430 1 1 0.0 59.8662 62.5658 32.1141
4937 1 8 0.0 53.5756 65.3591 36.3088
4446 1 8 0.0 58.7486 65.638 31.7519
4995 1 7 0.0 54.2785 66.5321 31.4566
4997 1 8 0.0 54.768 64.2319 32.1051
4996 1 7 0.0 53.9983 65.2649 32.276
5091 1 7 0.0 58.2001 63.8923 35.7066
5095 1 6 0.0 57.6229 65.1024 34.9784
5096 1 1 0.0 57.102 64.8338 34.0053
5097 1 7 0.0 56.4669 65.4731 36.0134
5077 1 6 0.0 58.6803 66.1854 34.6652
5078 1 1 0.0 58.6332 66.5031 33.595
5100 1 8 0.0 55.6671 67.0292 34.4127
5098 1 7 0.0 55.7171 66.7556 35.6722
5107 1 6 0.0 58.871 67.1638 36.9326
5109 1 7 0.0 58.3133 67.4599 35.525
5099 1 8 0.0 55.1579 67.5184 36.5637
5089 1 6 0.0 58.3526 64.3005 37.1621
5092 1 7 0.0 59.4059 63.2547 35.0221
5094 1 8 0.0 59.8532 63.6388 33.8527
4980 1 8 0.0 57.0935 67.9464 31.4874
5108 1 1 0.0 59.355 68.124 37.3227
4349 1 8 0.0 54.9123 63.6417 37.0027
5110 1 7 0.0 58.9382 68.7473 34.9212
5083 1 6 0.0 59.9598 66.07 36.694
4978 1 7 0.0 56.084 68.7491 31.4612
5101 1 6 0.0 57.2556 65.3745 37.3171
5079 1 7 0.0 60.0562 65.7908 35.0662
4493 1 8 0.0 64.4895 62.511 34.5529
4577 1 8 0.0 63.4175 65.0512 31.4446
4448 1 1 0.0 61.332 64.41 31.4899
4576 1 7 0.0 64.5406 65.5543 31.7352
5082 1 8 0.0 60.9145 67.0709 33.2218
5080 1 7 0.0 61.1713 66.5972 34.403
5081 1 8 0.0 62.3449 66.5434 34.9045
4578 1 8 0.0 65.0483 65.4912 32.9117
5084 1 1 0.0 61.019 66.409 36.9344
5051 1 8 0.0 64.5801 68.4514 33.6976
4499 1 8 0.0 62.077 63.5461 36.7798
6300 1 8 0.0 64.4059 66.3782 37.2551
5057 1 8 0.0 61.3796 68.6578 37.3143
4606 1 7 0.0 66.545 63.274 31.7492
4685 1 8 0.0 39.8555 69.1536 31.9061
4699 1 6 0.0 35.5302 68.9378 34.4295
4681 1 6 0.0 36.3521 69.0185 33.0482
4683 1 7 0.0 37.8485 69.0135 33.3361
4695 1 7 0.0 36.3663 68.8489 35.7239
4700 1 1 0.0 34.8842 69.7955 34.525
4682 1 1 0.0 36.0346 69.9069 32.457
4684 1 7 0.0 38.6886 69.6205 32.198
4686 1 8 0.0 38.2253 70.5906 31.5248
4696 1 7 0.0 37.3476 70.0053 35.7581
4698 1 8 0.0 37.0494 71.0628 35.112
4751 1 8 0.0 39.7552 70.6086 34.5808
4724 1 1 0.0 38.9437 73.6073 32.6006
4721 1 8 0.0 38.0556 74.1147 34.5106
4720 1 7 0.0 39.2289 74.3955 34.9778
4748 1 1 0.0 39.9906 71.3994 32.5932
4697 1 8 0.0 38.3372 70.0299 36.6162
4722 1 8 0.0 39.4725 74.571 36.2244
4871 1 8 0.0 45.8532 72.9375 31.332
4723 1 6 0.0 40.0322 73.6838 32.5849
4725 1 7 0.0 40.4728 74.5244 31.3905
4744 1 7 0.0 42.4619 70.7656 31.5474
4741 1 6 0.0 42.6414 73.3081 31.5847
4745 1 8 0.0 42.3975 69.992 32.5646
4743 1 7 0.0 41.7206 72.1456 31.4946
4750 1 7 0.0 40.4624 71.5747 35.0507
4838 1 1 0.0 45.6063 69.6576 33.5264
4839 1 7 0.0 45.0345 69.1373 31.5708
4763 1 8 0.0 44.6604 69.694 35.9578
4739 1 8 0.0 44.7217 71.3005 32.923
4764 1 8 0.0 42.4985 69.8896 36.4443
4740 1 8 0.0 43.7868 72.0189 34.8216
4738 1 7 0.0 43.9471 72.1247 33.5611
4747 1 6 0.0 40.7291 72.3008 32.6734
4749 1 7 0.0 41.4209 72.2757 34.0501
4737 1 7 0.0 43.6187 73.4432 32.8502
4717 1 6 0.0 41.6518 73.8305 34.4071
4762 1 7 0.0 43.7282 69.7799 36.809
4718 1 1 0.0 41.7836 73.867 35.5507
4780 1 7 0.0 44.9729 73.8176 36.5644
4752 1 8 0.0 40.3774 71.9863 36.2636
4779 1 7 0.0 44.6697 72.4028 37.1199
4782 1 8 0.0 46.1906 74.0588 36.2622
4781 1 8 0.0 44.056 74.747 36.6051
4870 1 7 0.0 46.3504 73.8662 32.0501
4872 1 8 0.0 45.72 74.2354 33.1064
4778 1 1 0.0 46.6154 71.6387 37.0267
4719 1 7 0.0 40.356 74.4257 33.9208
4729 1 6 0.0 41.977 74.6813 31.4541
4735 1 6 0.0 42.8369 74.4845 33.7216
4886 1 1 0.0 48.7102 71.3086 31.3535
4835 1 8 0.0 47.1286 68.7775 35.2752
4890 1 8 0.0 48.9617 70.0479 33.386
4885 1 6 0.0 49.0833 72.27 31.7558
4881 1 7 0.0 50.586 72.3261 31.8332
4888 1 7 0.0 48.7522 71.1672 34.0233
4889 1 8 0.0 48.7187 71.2364 35.3148
4892 1 1 0.0 48.2732 73.6952 34.8871
4887 1 7 0.0 48.4085 72.4262 33.2415
4891 1 6 0.0 48.8311 73.7246 33.8722
4893 1 7 0.0 50.3298 73.895 34.1327
4879 1 6 0.0 50.8646 73.7798 31.574
4908 1 8 0.0 52.1321 72.2463 34.5448
4906 1 7 0.0 52.8019 71.221 34.9319
4907 1 8 0.0 53.0046 70.2398 34.1511
4904 1 1 0.0 51.8198 72.645 37.0104
4903 1 6 0.0 52.9351 72.3536 37.2385
4869 1 7 0.0 47.6849 74.5613 31.7586
4895 1 8 0.0 49.7412 74.7734 36.3238
4894 1 7 0.0 50.6128 74.7319 35.3933
4905 1 7 0.0 53.2395 71.0999 36.4068
4928 1 1 0.0 53.2888 74.4841 36.5011
4867 1 6 0.0 48.3724 74.9643 33.0084
4861 1 6 0.0 50.7308 74.6735 32.8368
4982 1 1 0.0 53.7034 69.711 31.3601
5111 1 8 0.0 58.34 69.1767 33.8682
5040 1 8 0.0 57.4455 71.0116 31.3737
5008 1 7 0.0 54.9467 73.2794 32.1361
4910 1 1 0.0 54.9167 69.8052 35.931
4979 1 8 0.0 55.6509 69.4152 32.4603
4922 1 1 0.0 56.2715 71.7979 35.4421
5010 1 8 0.0 54.909 72.6108 33.2526
4923 1 7 0.0 54.832 73.139 35.7454
5006 1 1 0.0 57.3745 73.1257 32.9155