ITEM: TIMESTEP
0
ITEM: NUMBER OF ATOMS
336
ITEM: BOX BOUNDS xy xz yz pp pp pp
0.0000000000000000e+00 2.6364000320399999e+01 0.0000000000000000e+00
0.0000000000000000e+00 1.1574000358599999e+01 0.0000000000000000e+00
0.0000000000000000e+00 1.0708999633800000e+01 0.0000000000000000e+00
ITEM: ATOMS id type xs ys zs
1 1 0.0929903 0.356471 0.445049
2 1 0.90701 0.643529 0.554951
3 1 0.15701 0.643529 0.945049
4 1 0.34299 0.356471 0.054951
5 1 0.90701 0.856471 0.0549511
6 1 0.0929903 0.143529 0.945049
7 1 0.34299 0.143529 0.554951
8 1 0.15701 0.856471 0.445049
9 1 0.59299 0.356471 0.445049
10 1 0.40701 0.643529 0.554951
11 1 0.65701 0.643529 0.945049
12 1 0.84299 0.356471 0.0549511
13 1 0.40701 0.856471 0.0549511
14 1 0.59299 0.143529 0.945049
15 1 0.84299 0.143529 0.554951
16 1 0.65701 0.856471 0.445049
17 1 0.0242727 0.239952 0.339826
18 1 0.975727 0.760049 0.660174
19 1 0.225727 0.760049 0.839826
20 1 0.274273 0.239952 0.160175
21 1 0.975727 0.739952 0.160175
22 1 0.0242727 0.260049 0.839826
23 1 0.274273 0.260049 0.660174
24 1 0.225727 0.739952 0.339826
25 1 0.524273 0.239952 0.339825
26 1 0.475727 0.760048 0.660174
27 1 0.725727 0.760048 0.839826
28 1 0.774273 0.239952 0.160175
29 1 0.475727 0.739952 0.160175
30 1 0.524273 0.260048 0.839826
31 1 0.774273 0.260048 0.660174
32 1 0.725727 0.739952 0.339825
33 1 0.0747639 0.379981 0.209949
34 1 0.925236 0.620019 0.790051
35 1 0.175236 0.620019 0.709949
36 1 0.324764 0.379981 0.290051
37 1 0.925236 0.879981 0.290051
38 1 0.0747639 0.120019 0.709949
39 1 0.324764 0.120019 0.790051
40 1 0.175236 0.879981 0.209949
41 1 0.574764 0.379981 0.209949
42 1 0.425236 0.620019 0.790051
43 1 0.675236 0.620019 0.709949
44 1 0.824764 0.37998 0.290051
45 1 0.425236 0.87998 0.290051
46 1 0.574764 0.120019 0.709949
47 1 0.824764 0.120019 0.790051
48 1 0.675236 0.87998 0.209949
49 2 0.124318 0.290983 0.424076
50 2 0.875682 0.709017 0.575924
51 2 0.125682 0.709017 0.924076
52 2 0.374318 0.290983 0.075924
53 2 0.875682 0.790983 0.075924
54 2 0.124318 0.209017 0.924076
55 2 0.374318 0.209017 0.575924
56 2 0.125682 0.790983 0.424076
57 2 0.624318 0.290983 0.424076
58 2 0.375682 0.709017 0.575924
59 2 0.625682 0.709017 0.924076
60 2 0.874318 0.290983 0.075924
61 2 0.375682 0.790983 0.075924
62 2 0.624318 0.209017 0.924076
63 2 0.874318 0.209017 0.575924
64 2 0.625682 0.790983 0.424076
65 2 0.102713 0.409458 0.532151
66 2 0.897287 0.590542 0.467849
67 2 0.147287 0.590542 0.0321507
68 2 0.352713 0.409458 0.967849
69 2 0.897287 0.909458 0.967849
70 2 0.102713 0.0905424 0.0321507
71 2 0.352713 0.0905424 0.467849
72 2 0.147287 0.909458 0.532151
73 2 0.602713 0.409458 0.532151
74 2 0.397287 0.590542 0.467849
75 2 0.647287 0.590542 0.0321507
76 2 0.852713 0.409458 0.967849
77 2 0.397287 0.909458 0.967849
78 2 0.602713 0.0905424 0.0321507
79 2 0.852713 0.0905424 0.467849
80 2 0.647287 0.909458 0.532151
81 2 0.984036 0.205553 0.354507
82 2 0.015964 0.794447 0.645493
83 2 0.265964 0.794447 0.854507
84 2 0.234036 0.205553 0.145493
85 2 0.0159639 0.705553 0.145493
86 2 0.984036 0.294447 0.854507
87 2 0.234036 0.294447 0.645493
88 2 0.265964 0.705553 0.354507
89 2 0.484036 0.205553 0.354507
90 2 0.515964 0.794447 0.645493
91 2 0.765964 0.794447 0.854507
92 2 0.734036 0.205553 0.145493
93 2 0.515964 0.705553 0.145493
94 2 0.484036 0.294447 0.854507
95 2 0.734036 0.294447 0.645493
96 2 0.765964 0.705553 0.354507
97 2 0.0507441 0.164502 0.318049
98 2 0.949256 0.835498 0.681951
99 2 0.199256 0.835498 0.818049
100 2 0.300744 0.164502 0.181951
101 2 0.949256 0.664502 0.181951
102 2 0.0507441 0.335498 0.818049
103 2 0.300744 0.335498 0.681951
104 2 0.199256 0.664502 0.318049
105 2 0.550744 0.164502 0.318049
106 2 0.449256 0.835498 0.681951
107 2 0.699256 0.835498 0.818049
108 2 0.800744 0.164503 0.181951
109 2 0.449256 0.664503 0.181951
110 2 0.550744 0.335498 0.818049
111 2 0.800744 0.335498 0.681951
112 2 0.699256 0.664502 0.318049
113 2 0.10589 0.314338 0.186528
114 2 0.89411 0.685662 0.813472
115 2 0.14411 0.685662 0.686528
116 2 0.35589 0.314338 0.313472
117 2 0.89411 0.814338 0.313472
118 2 0.10589 0.185662 0.686528
119 2 0.35589 0.185662 0.813472
120 2 0.14411 0.814338 0.186528
121 2 0.60589 0.314338 0.186528
122 2 0.39411 0.685662 0.813472
123 2 0.64411 0.685662 0.686528
124 2 0.85589 0.314338 0.313472
125 2 0.39411 0.814338 0.313472
126 2 0.60589 0.185662 0.686528
127 2 0.85589 0.185662 0.813472
128 2 0.64411 0.814338 0.186528
129 2 0.0727585 0.448247 0.132508
130 2 0.927242 0.551753 0.867492
131 2 0.177242 0.551753 0.632508
132 2 0.322758 0.448247 0.367492
133 2 0.927242 0.948247 0.367492
134 2 0.0727585 0.0517534 0.632508
135 2 0.322758 0.0517534 0.867492
136 2 0.177242 0.948247 0.132508
137 2 0.572758 0.448247 0.132508
138 2 0.427242 0.551753 0.867492
139 2 0.677242 0.551753 0.632508
140 2 0.822758 0.448247 0.367492
141 2 0.427242 0.948247 0.367492
142 2 0.572758 0.0517534 0.632508
143 2 0.822758 0.0517534 0.867492
144 2 0.677242 0.948247 0.132508
145 3 0.0876631 0.432175 0.333149
146 3 0.912337 0.567825 0.666851
147 3 0.162337 0.567825 0.833149
148 3 0.337663 0.432175 0.166851
149 3 0.912337 0.932175 0.166851
150 3 0.0876631 0.0678248 0.833149
151 3 0.337663 0.0678248 0.666851
152 3 0.162337 0.932175 0.333149
153 3 0.587663 0.432175 0.333149
154 3 0.412337 0.567825 0.666851
155 3 0.662337 0.567825 0.833149
156 3 0.837663 0.432175 0.166851
157 3 0.412337 0.932175 0.166851
158 3 0.587663 0.0678248 0.833149
159 3 0.837663 0.0678248 0.666851
160 3 0.662337 0.932175 0.333149
161 3 0.046339 0.282105 0.461725
162 3 0.953661 0.717895 0.538275
163 3 0.203661 0.717895 0.961725
164 3 0.296339 0.282105 0.038275
165 3 0.953661 0.782105 0.038275
166 3 0.046339 0.217895 0.961725
167 3 0.296339 0.217895 0.538275
168 3 0.203661 0.782105 0.461725
169 3 0.546339 0.282105 0.461725
170 3 0.453661 0.717895 0.538275
171 3 0.703661 0.717895 0.961725
172 3 0.796339 0.282104 0.0382751
173 3 0.453661 0.782104 0.0382751
174 3 0.546339 0.217895 0.961725
175 3 0.796339 0.217895 0.538275
176 3 0.703661 0.782104 0.461725
177 3 0.0274189 0.308405 0.219699
178 3 0.972581 0.691595 0.780301
179 3 0.222581 0.691595 0.719699
180 3 0.277419 0.308405 0.2803
181 3 0.972581 0.808405 0.2803
182 3 0.0274189 0.191595 0.719699
183 3 0.277419 0.191595 0.780301
184 3 0.222581 0.808405 0.219699
185 3 0.527419 0.308405 0.2197
186 3 0.472581 0.691595 0.7803
187 3 0.722581 0.691595 0.719699
188 3 0.777419 0.308405 0.2803
189 3 0.472581 0.808405 0.2803
190 3 0.527419 0.191595 0.719699
191 3 0.777419 0.191595 0.7803
192 3 0.722581 0.808405 0.2197
193 3 0.115611 0.547815 0.335017
194 3 0.884389 0.452185 0.664983
195 3 0.134389 0.452185 0.835017
196 3 0.365611 0.547815 0.164983
197 3 0.884389 0.0478153 0.164983
198 3 0.115611 0.952185 0.835017
199 3 0.365611 0.952185 0.664983
200 3 0.134389 0.047815 0.335017
201 3 0.615611 0.547815 0.335017
202 3 0.384389 0.452185 0.664983
203 3 0.634389 0.452185 0.835017
204 3 0.865611 0.547815 0.164983
205 3 0.384389 0.0478153 0.164983
206 3 0.615611 0.952185 0.835017
207 3 0.865611 0.952185 0.664983
208 3 0.634389 0.0478151 0.335017
209 3 0.00608328 0.354025 0.531411
210 3 0.993917 0.645975 0.468589
211 3 0.243917 0.645975 0.0314112
212 3 0.256083 0.354025 0.968589
213 3 0.993917 0.854025 0.968589
214 3 0.00608328 0.145975 0.0314111
215 3 0.256083 0.145975 0.468589
216 3 0.243917 0.854025 0.531411
217 3 0.506083 0.354025 0.531411
218 3 0.493917 0.645975 0.468589
219 3 0.743917 0.645976 0.0314111
220 3 0.756083 0.354025 0.968589
221 3 0.493917 0.854024 0.968589
222 3 0.506083 0.145975 0.0314111
223 3 0.756083 0.145975 0.468589
224 3 0.743917 0.854025 0.531411
225 3 0.981781 0.388214 0.206496
226 3 0.0182186 0.611786 0.793504
227 3 0.268219 0.611786 0.706496
228 3 0.231781 0.388214 0.293504
229 3 0.0182186 0.888214 0.293504
230 3 0.981781 0.111786 0.706496
231 3 0.231781 0.111786 0.793504
232 3 0.268219 0.888214 0.206496
233 3 0.481781 0.388214 0.206496
234 3 0.518219 0.611786 0.793504
235 3 0.768219 0.611786 0.706496
236 3 0.731781 0.388214 0.293504
237 3 0.518219 0.888214 0.293504
238 3 0.481781 0.111786 0.706496
239 3 0.731781 0.111786 0.793504
240 3 0.768219 0.888214 0.206496
241 4 0.115964 0.606152 0.233565
242 4 0.884036 0.393847 0.766436
243 4 0.134036 0.393847 0.733564
244 4 0.365964 0.606152 0.266435
245 4 0.884036 0.106152 0.266435
246 4 0.115964 0.893847 0.733564
247 4 0.365964 0.893847 0.766436
248 4 0.134036 0.106152 0.233565
249 4 0.615964 0.606152 0.233565
250 4 0.384036 0.393847 0.766436
251 4 0.634036 0.393847 0.733564
252 4 0.865964 0.606152 0.266435
253 4 0.384036 0.106152 0.266435
254 4 0.615964 0.893847 0.733564
255 4 0.865964 0.893847 0.766436
256 4 0.634036 0.106152 0.233565
257 4 0.135496 0.579267 0.437875
258 4 0.864504 0.420733 0.562125
259 4 0.114503 0.420733 0.937875
260 4 0.385496 0.579267 0.0621256
261 4 0.864504 0.079267 0.0621259
262 4 0.135497 0.920733 0.937875
263 4 0.385497 0.920733 0.562124
264 4 0.114504 0.0792673 0.437875
265 4 0.635496 0.579267 0.437875
266 4 0.364504 0.420733 0.562125
267 4 0.614504 0.420733 0.937875
268 4 0.885496 0.579267 0.0621259
269 4 0.364504 0.079267 0.0621259
270 4 0.635496 0.920733 0.937875
271 4 0.885496 0.920733 0.562125
272 4 0.614504 0.0792672 0.437875
273 4 0.960136 0.316255 0.531785
274 4 0.0398639 0.683745 0.468215
275 4 0.289864 0.683745 0.0317851
276 4 0.210136 0.316255 0.968215
277 4 0.0398639 0.816255 0.968215
278 4 0.960136 0.183745 0.0317852
279 4 0.210136 0.183745 0.468215
280 4 0.289864 0.816255 0.531785
281 4 0.460136 0.316255 0.531785
282 4 0.539864 0.683745 0.468215
283 4 0.789864 0.683745 0.0317852
284 4 0.710136 0.316255 0.968215
285 4 0.539864 0.816256 0.968215
286 4 0.460136 0.183745 0.0317852
287 4 0.710136 0.183745 0.468215
288 4 0.789864 0.816255 0.531785
289 4 0.0206092 0.433476 0.607858
290 4 0.979391 0.566524 0.392142
291 4 0.229391 0.566524 0.107858
292 4 0.270609 0.433476 0.892142
293 4 0.979391 0.933476 0.892142
294 4 0.0206092 0.0665239 0.107858
295 4 0.270609 0.0665238 0.392142
296 4 0.229391 0.933476 0.607858
297 4 0.520609 0.433476 0.607858
298 4 0.479391 0.566524 0.392142
299 4 0.729391 0.566524 0.107858
300 4 0.770609 0.433476 0.892142
301 4 0.479391 0.933476 0.892142
302 4 0.520609 0.0665239 0.107858
303 4 0.770609 0.0665239 0.392142
304 4 0.729391 0.933476 0.607858
305 4 0.938466 0.356307 0.250827
306 4 0.0615336 0.643693 0.749173
307 4 0.311534 0.643693 0.750827
308 4 0.188466 0.356307 0.249173
309 4 0.0615335 0.856307 0.249173
310 4 0.938466 0.143693 0.750827
311 4 0.188466 0.143693 0.749173
312 4 0.311534 0.856307 0.250827
313 4 0.438466 0.356307 0.250827
314 4 0.561534 0.643693 0.749173
315 4 0.811534 0.643693 0.750827
316 4 0.688466 0.356307 0.249173
317 4 0.561534 0.856307 0.249173
318 4 0.438466 0.143693 0.750827
319 4 0.688466 0.143693 0.749173
320 4 0.811534 0.856307 0.250827
321 4 0.985161 0.477477 0.134325
322 4 0.014839 0.522523 0.865675
323 4 0.264839 0.522523 0.634325
324 4 0.235161 0.477477 0.365675
325 4 0.014839 0.977477 0.365675
326 4 0.985161 0.0225229 0.634325
327 4 0.235161 0.0225229 0.865675
328 4 0.264839 0.977477 0.134325
329 4 0.485161 0.477477 0.134325
330 4 0.514839 0.522523 0.865675
331 4 0.764839 0.522523 0.634325
332 4 0.735161 0.477477 0.365675
333 4 0.514839 0.977477 0.365675
334 4 0.485161 0.022523 0.634325
335 4 0.735161 0.022523 0.865675
336 4 0.764839 0.977477 0.134325
ITEM: TIMESTEP
1000
ITEM: NUMBER OF ATOMS
336
ITEM: BOX BOUNDS xy xz yz pp pp pp
-2.2367898720077950e-01 2.6675636628766576e+01 1.1696471490038382e-01
1.4118431362661793e-01 1.1367547160264435e+01 -2.9007393734639678e-02
1.0350223058489760e-01 1.0605497403215029e+01 -6.5268884708955574e-02
ITEM: ATOMS id type xs ys zs
1 1 0.0935882 0.401047 0.458694
2 1 0.913 0.61351 0.572934
3 1 0.166341 0.612503 0.94867
4 1 0.341789 0.382019 0.0456509
5 1 0.914949 0.903162 0.063834
6 1 0.0848624 0.145389 0.953332
7 1 0.333809 0.118138 0.53012
8 1 0.169327 0.888061 0.4595
9 1 0.585923 0.377752 0.444412
10 1 0.409479 0.612145 0.551851
11 1 0.661604 0.586157 0.952165
12 1 0.833916 0.395823 0.0523445
13 1 0.409979 0.87462 0.0332527
14 1 0.588011 0.11078 0.93533
15 1 0.83379 0.106872 0.547945
16 1 0.659059 0.887368 0.442501
17 1 0.0217027 0.26431 0.376224
18 1 0.973191 0.760951 0.671936
19 1 0.229637 0.744835 0.824619
20 1 0.273297 0.245446 0.139925
21 1 0.984285 0.761099 0.15909
22 1 0.0222999 0.262135 0.823488
23 1 0.267126 0.243836 0.665515
24 1 0.228481 0.751211 0.322184
25 1 0.517592 0.249109 0.336007
26 1 0.476452 0.73733 0.664267
27 1 0.727976 0.731214 0.851111
28 1 0.775311 0.251734 0.170282
29 1 0.4736 0.738949 0.15625
30 1 0.524632 0.244666 0.813475
31 1 0.770511 0.234064 0.673676
32 1 0.730653 0.744704 0.34945
33 1 0.0720379 0.399001 0.219741
34 1 0.927572 0.617418 0.819509
35 1 0.168971 0.602 0.704174
36 1 0.324826 0.390625 0.293415
37 1 0.928343 0.889744 0.31222
38 1 0.0718296 0.0968107 0.712327
39 1 0.328477 0.0923925 0.776731
40 1 0.173724 0.905931 0.209929
41 1 0.574171 0.385689 0.200461
42 1 0.428589 0.579933 0.795174
43 1 0.677611 0.586587 0.707988
44 1 0.81924 0.411344 0.301443
45 1 0.414559 0.886827 0.285913
46 1 0.578734 0.093353 0.685818
47 1 0.827941 0.0903811 0.795862
48 1 0.681411 0.888333 0.199594
49 2 0.124523 0.353548 0.512325
50 2 0.881771 0.678332 0.551856
51 2 0.134024 0.669413 0.985279
52 2 0.375775 0.325648 0.023583
53 2 0.883306 0.855706 0.017303
54 2 0.117108 0.199013 0.985218
55 2 0.366594 0.164468 0.481522
56 2 0.134751 0.850624 0.506477
57 2 0.617887 0.32164 0.477456
58 2 0.376001 0.668946 0.525926
59 2 0.629576 0.64064 0.986174
60 2 0.86914 0.351486 0.00892853
61 2 0.378801 0.825755 0.989471
62 2 0.620983 0.159794 0.982007
63 2 0.861175 0.164881 0.494147
64 2 0.624453 0.837729 0.476956
65 2 0.0875192 0.483063 0.512325
66 2 0.912047 0.545493 0.494755
67 2 0.172672 0.533658 0.0160211
68 2 0.339679 0.46268 0.985259
69 2 0.920129 0.983905 0.00163555
70 2 0.0796756 0.0762303 0.03496
71 2 0.321663 0.046774 0.454799
72 2 0.186484 0.959512 0.519312
73 2 0.583052 0.452408 0.514343
74 2 0.4147 0.54241 0.472689
75 2 0.667386 0.5039 0.0120291
76 2 0.823958 0.466962 0.97966
77 2 0.41414 0.954313 0.96878
78 2 0.583224 0.0286144 0.996578
79 2 0.822881 0.0281143 0.490534
80 2 0.666004 0.959733 0.51452
81 2 0.981862 0.240406 0.39852
82 2 0.0123012 0.798935 0.648734
83 2 0.270198 0.773838 0.828669
84 2 0.235094 0.201195 0.128405
85 2 0.0252476 0.742976 0.138012
86 2 0.983331 0.300603 0.82047
87 2 0.226004 0.254943 0.647847
88 2 0.264282 0.700658 0.326122
89 2 0.477398 0.22014 0.349764
90 2 0.516854 0.77076 0.656546
91 2 0.766551 0.761679 0.868169
92 2 0.737766 0.206498 0.163588
93 2 0.51693 0.731355 0.148387
94 2 0.48195 0.260066 0.822828
95 2 0.731847 0.276414 0.667448
96 2 0.770392 0.720141 0.358041
97 2 0.0406283 0.17543 0.368675
98 2 0.949503 0.84304 0.68562
99 2 0.20848 0.826421 0.809002
100 2 0.297539 0.160372 0.162234
101 2 0.968275 0.668213 0.170082
102 2 0.0464233 0.337278 0.788582
103 2 0.279771 0.331699 0.685581
104 2 0.202081 0.66675 0.298802
105 2 0.536672 0.158115 0.319426
106 2 0.455506 0.827407 0.686918
107 2 0.70401 0.810703 0.834197
108 2 0.802607 0.182115 0.198286
109 2 0.461957 0.643376 0.165417
110 2 0.540846 0.338647 0.801565
111 2 0.797004 0.310611 0.677159
112 2 0.712222 0.652325 0.331786
113 2 0.0956381 0.349077 0.14804
114 2 0.898283 0.667032 0.885398
115 2 0.138767 0.656375 0.656899
116 2 0.350186 0.326367 0.348054
117 2 0.898994 0.827672 0.352423
118 2 0.0972046 0.117582 0.629861
119 2 0.357348 0.14172 0.832793
120 2 0.142717 0.860825 0.148549
121 2 0.6009 0.329548 0.137261
122 2 0.402506 0.631304 0.864268
123 2 0.649605 0.635792 0.643431
124 2 0.848873 0.384168 0.380319
125 2 0.384528 0.836952 0.343245
126 2 0.601927 0.143834 0.614048
127 2 0.85735 0.141531 0.860648
128 2 0.656053 0.831927 0.137818
129 2 0.061801 0.486439 0.166442
130 2 0.942548 0.537881 0.87232
131 2 0.178017 0.522955 0.639578
132 2 0.314256 0.466251 0.361701
133 2 0.934317 0.965092 0.379287
134 2 0.0534739 0.008192 0.698437
135 2 0.323295 0.00651127 0.833213
136 2 0.181476 0.994544 0.164316
137 2 0.562555 0.466776 0.137419
138 2 0.442507 0.499432 0.855573
139 2 0.690093 0.50462 0.656846
140 2 0.80579 0.495153 0.350689
141 2 0.423037 0.967802 0.34804
142 2 0.568462 0.00569839 0.632279
143 2 0.817314 0.00653807 0.849101
144 2 0.690568 0.967616 0.132609
145 3 0.1091 0.433974 0.330918
146 3 0.900997 0.568131 0.702978
147 3 0.147138 0.560256 0.825824
148 3 0.351659 0.436787 0.178421
149 3 0.904085 0.949509 0.196601
150 3 0.10362 0.090218 0.831748
151 3 0.350545 0.0566248 0.648082
152 3 0.149638 0.94065 0.335558
153 3 0.60009 0.430891 0.315777
154 3 0.400652 0.547325 0.67709
155 3 0.648257 0.543157 0.821995
156 3 0.844388 0.448496 0.182846
157 3 0.396181 0.929712 0.162129
158 3 0.604344 0.0579036 0.808784
159 3 0.854276 0.0589662 0.673676
160 3 0.651327 0.935027 0.30881
161 3 0.0459462 0.325341 0.484749
162 3 0.954442 0.702243 0.553103
163 3 0.210065 0.694505 0.948473
164 3 0.296717 0.301538 0.0254637
165 3 0.960118 0.825191 0.0460794
166 3 0.0398305 0.229673 0.95173
167 3 0.291641 0.209904 0.542181
168 3 0.210569 0.795473 0.451744
169 3 0.539232 0.301379 0.453935
170 3 0.455005 0.689256 0.542014
171 3 0.705658 0.67058 0.966895
172 3 0.792285 0.304415 0.0476447
173 3 0.456171 0.792677 0.0338302
174 3 0.543349 0.196446 0.940415
175 3 0.787645 0.183335 0.548048
176 3 0.703347 0.80343 0.460346
177 3 0.0261146 0.324993 0.248193
178 3 0.970076 0.69912 0.803701
179 3 0.214969 0.680524 0.702847
180 3 0.27803 0.317694 0.260529
181 3 0.976681 0.821011 0.284266
182 3 0.0280202 0.177983 0.707953
183 3 0.279684 0.163146 0.776421
184 3 0.219293 0.82823 0.207028
185 3 0.527746 0.311316 0.211802
186 3 0.472089 0.666422 0.783137
187 3 0.72063 0.66951 0.723699
188 3 0.777564 0.321456 0.294424
189 3 0.460557 0.806139 0.278538
190 3 0.531682 0.169873 0.697616
191 3 0.781013 0.165319 0.794482
192 3 0.728807 0.813768 0.227899
193 3 0.127524 0.561726 0.324117
194 3 0.884303 0.435008 0.707826
195 3 0.132859 0.42562 0.825262
196 3 0.361314 0.571453 0.184265
197 3 0.890162 0.082742 0.211359
198 3 0.126183 0.963613 0.854026
199 3 0.368277 0.924482 0.637457
200 3 0.128769 0.0676044 0.354145
201 3 0.614777 0.563543 0.311273
202 3 0.385117 0.416751 0.670676
203 3 0.634381 0.40701 0.810511
204 3 0.866153 0.578233 0.186052
205 3 0.387402 0.0680911 0.159269
206 3 0.619649 0.92585 0.817454
207 3 0.867944 0.924941 0.675689
208 3 0.63304 0.0665091 0.309024
209 3 0.0059533 0.397162 0.556595
210 3 0.995609 0.639436 0.475235
211 3 0.255554 0.637969 0.0166427
212 3 0.25747 0.353138 0.933723
213 3 0.000677105 0.89436 0.971299
214 3 0.997736 0.173206 0.0297218
215 3 0.249337 0.171078 0.451504
216 3 0.25817 0.841844 0.517013
217 3 0.4971 0.36718 0.52848
218 3 0.495992 0.631495 0.456383
219 3 0.746702 0.618552 0.0537759
220 3 0.747377 0.352089 0.970201
221 3 0.499408 0.861794 0.97463
222 3 0.497923 0.144918 0.00500303
223 3 0.743357 0.129327 0.475624
224 3 0.743102 0.868228 0.540422
225 3 0.978233 0.39797 0.225039
226 3 0.0195448 0.633068 0.834136
227 3 0.259372 0.600062 0.659377
228 3 0.230381 0.39647 0.285847
229 3 0.0198837 0.90592 0.31544
230 3 0.97904 0.108684 0.688392
231 3 0.237843 0.0716885 0.791276
232 3 0.264918 0.902447 0.165792
233 3 0.480678 0.384749 0.17593
234 3 0.523159 0.607902 0.813694
235 3 0.768218 0.602241 0.679712
236 3 0.728534 0.389493 0.319664
237 3 0.505822 0.885121 0.311537
238 3 0.486152 0.0837362 0.689218
239 3 0.73629 0.0856196 0.832177
240 3 0.773462 0.898481 0.221396
241 4 0.121415 0.618951 0.21736
242 4 0.894079 0.375308 0.808069
243 4 0.132645 0.365665 0.721096
244 4 0.360111 0.624553 0.291504
245 4 0.889729 0.124812 0.324735
246 4 0.117259 0.886481 0.765487
247 4 0.374622 0.859676 0.737865
248 4 0.124546 0.136161 0.253488
249 4 0.615423 0.619213 0.203629
250 4 0.388651 0.35368 0.773381
251 4 0.645707 0.348522 0.709828
252 4 0.870518 0.630672 0.296267
253 4 0.390534 0.133063 0.25775
254 4 0.610218 0.855798 0.724338
255 4 0.857656 0.868751 0.778293
256 4 0.633059 0.128269 0.205392
257 4 0.149222 0.613077 0.421019
258 4 0.858875 0.393183 0.612243
259 4 0.115155 0.384789 0.929046
260 4 0.382977 0.623719 0.087554
261 4 0.873916 0.143977 0.116074
262 4 0.139762 0.938065 0.96797
263 4 0.385058 0.887405 0.529269
264 4 0.111774 0.0983854 0.463235
265 4 0.632084 0.613024 0.413656
266 4 0.364199 0.377114 0.568562
267 4 0.606653 0.364322 0.896479
268 4 0.885094 0.621264 0.0876769
269 4 0.368174 0.114976 0.0583621
270 4 0.641899 0.885234 0.917115
271 4 0.88668 0.880381 0.573358
272 4 0.611806 0.104386 0.410013
273 4 0.95936 0.364931 0.555671
274 4 0.0406608 0.67938 0.473828
275 4 0.300734 0.660834 0.982218
276 4 0.211365 0.323212 0.938655
277 4 0.0466277 0.859937 0.97969
278 4 0.955305 0.228393 0.0376075
279 4 0.204186 0.211117 0.46738
280 4 0.299885 0.786806 0.496108
281 4 0.450099 0.352303 0.497848
282 4 0.542569 0.647161 0.482971
283 4 0.791957 0.652984 0.0396136
284 4 0.702116 0.32215 0.995505
285 4 0.544737 0.835094 0.00871537
286 4 0.453619 0.188144 0.983355
287 4 0.699639 0.172167 0.50095
288 4 0.789377 0.834717 0.529834
289 4 0.0203056 0.475602 0.636752
290 4 0.980176 0.570053 0.383507
291 4 0.245808 0.564953 0.106572
292 4 0.273381 0.427896 0.851138
293 4 0.98688 0.957457 0.87678
294 4 0.00977629 0.100755 0.121174
295 4 0.259993 0.1118 0.351483
296 4 0.254303 0.945284 0.568594
297 4 0.506787 0.43105 0.62477
298 4 0.483453 0.574813 0.355556
299 4 0.7354 0.546397 0.141618
300 4 0.754384 0.434734 0.887886
301 4 0.4914 0.927826 0.877061
302 4 0.504172 0.0713983 0.100841
303 4 0.749906 0.0692618 0.373281
304 4 0.733872 0.957993 0.61256
305 4 0.935882 0.3698 0.268596
306 4 0.061448 0.662707 0.784498
307 4 0.304955 0.617083 0.690269
308 4 0.189731 0.376534 0.227692
309 4 0.0608888 0.896034 0.252457
310 4 0.938746 0.144298 0.748519
311 4 0.191704 0.0912073 0.761744
312 4 0.309186 0.864341 0.175492
313 4 0.436178 0.355633 0.206228
314 4 0.560533 0.614488 0.740003
315 4 0.811087 0.626347 0.729683
316 4 0.687795 0.350768 0.265926
317 4 0.550383 0.841332 0.312189
318 4 0.442788 0.125005 0.717437
319 4 0.692722 0.123435 0.808555
320 4 0.816928 0.864782 0.260963
321 4 0.979221 0.475446 0.133256
322 4 0.0201618 0.551398 0.919748
323 4 0.249831 0.502295 0.596275
324 4 0.235126 0.476826 0.37382
325 4 0.0156143 0.98201 0.404641
326 4 0.976183 0.0283577 0.602071
327 4 0.247882 0.978249 0.858031
328 4 0.256216 0.0067597 0.119075
329 4 0.484233 0.472977 0.099804
330 4 0.522658 0.537942 0.91046
331 4 0.764849 0.506831 0.611039
332 4 0.726775 0.467946 0.409136
333 4 0.499451 0.986075 0.366332
334 4 0.489229 0.983419 0.631911
335 4 0.744419 0.991092 0.897742
336 4 0.771524 0.988476 0.146483
ITEM: TIMESTEP
2000
ITEM: NUMBER OF ATOMS
336
ITEM: BOX BOUNDS xy xz yz pp pp pp
-8.7494035401989773e-02 2.6317513085045505e+01 -1.1837805552550226e-01
1.4850478484414856e-01 1.1364195547188654e+01 -1.5603215231029526e-02
-2.8716601310951440e-02 1.0737716235110906e+01 -6.1300026567192328e-02
ITEM: ATOMS id type xs ys zs
1 1 0.116843 0.375978 0.385136
2 1 0.908192 0.622907 0.602048
3 1 0.162737 0.627973 0.922142
4 1 0.352631 0.385887 0.10159
5 1 0.883779 0.875429 0.118664
6 1 0.0849325 0.0910584 0.93681
7 1 0.35098 0.111098 0.578443
8 1 0.156763 0.847583 0.418128
9 1 0.598953 0.38281 0.380938
10 1 0.392219 0.614866 0.592235
11 1 0.645638 0.624584 0.880082
12 1 0.850919 0.370581 0.145432
13 1 0.410553 0.872111 0.0727427
14 1 0.605536 0.126962 0.905595
15 1 0.844716 0.120397 0.581301
16 1 0.636964 0.872206 0.379545
17 1 0.0318021 0.263931 0.342277
18 1 0.972664 0.765171 0.718672
19 1 0.215256 0.740352 0.755871
20 1 0.273761 0.266673 0.163413
21 1 0.96487 0.760648 0.182203
22 1 0.0372846 0.248216 0.813239
23 1 0.286508 0.224342 0.706198
24 1 0.220515 0.762153 0.256705
25 1 0.529868 0.262244 0.268753
26 1 0.470675 0.732324 0.674329
27 1 0.727958 0.726385 0.811227
28 1 0.779518 0.242283 0.255085
29 1 0.471992 0.760543 0.210561
30 1 0.537001 0.225971 0.767294
31 1 0.792149 0.235928 0.73739
32 1 0.713035 0.754453 0.302564
33 1 0.0705938 0.39742 0.174855
34 1 0.923003 0.600632 0.841364
35 1 0.153738 0.573719 0.68964
36 1 0.313793 0.405894 0.322549
37 1 0.918053 0.895391 0.34511
38 1 0.0952284 0.104585 0.696305
39 1 0.343363 0.07352 0.819151
40 1 0.149959 0.897471 0.182787
41 1 0.576132 0.427542 0.152188
42 1 0.420621 0.595103 0.819795
43 1 0.685257 0.582031 0.663499
44 1 0.828508 0.402424 0.376178
45 1 0.404045 0.895299 0.306639
46 1 0.603349 0.0992647 0.666772
47 1 0.856204 0.0887403 0.823931
48 1 0.670872 0.896751 0.15558
49 2 0.145806 0.303421 0.362673
50 2 0.874069 0.671232 0.561172
51 2 0.130588 0.683136 0.965377
52 2 0.379898 0.305953 0.100556
53 2 0.849433 0.810759 0.122295
54 2 0.115973 0.116023 0.0125248
55 2 0.382858 0.17089 0.539333
56 2 0.123358 0.785409 0.433716
57 2 0.630677 0.315128 0.378614
58 2 0.363849 0.68812 0.603528
59 2 0.618016 0.699577 0.862932
60 2 0.884788 0.307273 0.145414
61 2 0.380427 0.827966 0.0085177
62 2 0.634489 0.195922 0.937682
63 2 0.870767 0.184949 0.54158
64 2 0.601951 0.810183 0.372017
65 2 0.135014 0.433987 0.461088
66 2 0.916103 0.555739 0.528557
67 2 0.173604 0.576383 0.00686796
68 2 0.371152 0.447179 0.0339361
69 2 0.870971 0.942281 0.0452977
70 2 0.0635405 0.0113633 0.978481
71 2 0.344344 0.0411885 0.499939
72 2 0.157397 0.897473 0.505809
73 2 0.604544 0.430928 0.468254
74 2 0.383139 0.55575 0.51026
75 2 0.624164 0.594136 0.963293
76 2 0.854328 0.429484 0.059774
77 2 0.422683 0.958286 0.0231798
78 2 0.603074 0.0531774 0.97983
79 2 0.83526 0.0499794 0.50737
80 2 0.627719 0.941137 0.456381
81 2 0.993807 0.239847 0.386187
82 2 0.0134424 0.801652 0.699704
83 2 0.25699 0.748741 0.741632
84 2 0.235373 0.229945 0.127601
85 2 0.00381834 0.745359 0.139252
86 2 0.995222 0.271279 0.81062
87 2 0.245368 0.253093 0.705693
88 2 0.261861 0.744921 0.25099
89 2 0.487583 0.248139 0.293006
90 2 0.512249 0.755496 0.654473
91 2 0.766228 0.746747 0.850019
92 2 0.739217 0.221074 0.227507
93 2 0.512504 0.720836 0.213303
94 2 0.495693 0.260643 0.766049
95 2 0.750544 0.267643 0.746045
96 2 0.749941 0.732939 0.343255
97 2 0.0483552 0.173196 0.31117
98 2 0.947128 0.848425 0.742477
99 2 0.199498 0.833509 0.733183
100 2 0.293624 0.186067 0.202863
101 2 0.955943 0.668704 0.214954
102 2 0.0538364 0.340996 0.813214
103 2 0.30401 0.317461 0.72588
104 2 0.205293 0.667611 0.233741
105 2 0.546046 0.168899 0.237939
106 2 0.456901 0.826183 0.698123
107 2 0.711928 0.80824 0.759377
108 2 0.794462 0.153269 0.282942
109 2 0.451346 0.672036 0.245486
110 2 0.559011 0.312038 0.74487
111 2 0.815405 0.321275 0.747364
112 2 0.699616 0.663547 0.27627
113 2 0.0916317 0.321714 0.126313
114 2 0.891958 0.655453 0.887234
115 2 0.121926 0.626689 0.646015
116 2 0.335424 0.336898 0.37956
117 2 0.896274 0.826894 0.397567
118 2 0.122334 0.174846 0.658364
119 2 0.373873 0.125148 0.869728
120 2 0.12579 0.821517 0.138466
121 2 0.603123 0.39179 0.0784196
122 2 0.396994 0.673416 0.854127
123 2 0.668456 0.651269 0.603103
124 2 0.852064 0.336302 0.434025
125 2 0.384443 0.820551 0.360577
126 2 0.627402 0.180548 0.631785
127 2 0.887501 0.157997 0.860185
128 2 0.650527 0.828359 0.089954
129 2 0.058185 0.471294 0.104652
130 2 0.932874 0.520295 0.907884
131 2 0.156584 0.481698 0.638685
132 2 0.304181 0.485585 0.381216
133 2 0.929227 0.965815 0.415781
134 2 0.0935139 0.0311477 0.620916
135 2 0.335703 0.991904 0.880565
136 2 0.144115 0.972137 0.11656
137 2 0.560717 0.51656 0.112306
138 2 0.421619 0.530692 0.910175
139 2 0.6889 0.499593 0.601702
140 2 0.820763 0.481271 0.442654
141 2 0.405672 0.979886 0.366126
142 2 0.606637 0.0265591 0.596801
143 2 0.856725 0.00381216 0.8829
144 2 0.684343 0.97813 0.0923556
145 3 0.109784 0.44876 0.26428
146 3 0.896713 0.563234 0.725912
147 3 0.140007 0.549387 0.822968
148 3 0.353444 0.44213 0.228494
149 3 0.884463 0.943815 0.240268
150 3 0.112241 0.0531668 0.814189
151 3 0.368434 0.0491398 0.694662
152 3 0.132147 0.921128 0.311279
153 3 0.606662 0.458402 0.26755
154 3 0.388391 0.551125 0.71506
155 3 0.644258 0.556397 0.758887
156 3 0.854385 0.446464 0.260794
157 3 0.380438 0.91775 0.182389
158 3 0.624561 0.0641639 0.790324
159 3 0.869814 0.0586039 0.69184
160 3 0.635204 0.938914 0.258467
161 3 0.0701872 0.315106 0.433275
162 3 0.95189 0.71485 0.60155
163 3 0.206491 0.713479 0.889944
164 3 0.307106 0.312509 0.0595486
165 3 0.930607 0.806466 0.0816857
166 3 0.0496803 0.195627 0.936036
167 3 0.307057 0.19477 0.578597
168 3 0.206091 0.781675 0.392568
169 3 0.556627 0.292895 0.388741
170 3 0.438468 0.694763 0.564575
171 3 0.692857 0.697272 0.915564
172 3 0.805774 0.283114 0.137638
173 3 0.453677 0.783295 0.0806794
174 3 0.555389 0.192912 0.895171
175 3 0.801328 0.200537 0.604551
176 3 0.68189 0.796522 0.414012
177 3 0.0241374 0.331472 0.22586
178 3 0.968005 0.685877 0.833858
179 3 0.199985 0.645916 0.657827
180 3 0.266402 0.338534 0.279645
181 3 0.964658 0.829169 0.306483
182 3 0.0467153 0.179614 0.695764
183 3 0.294548 0.140434 0.813354
184 3 0.202559 0.849376 0.161544
185 3 0.531704 0.340636 0.155053
186 3 0.46852 0.663627 0.792988
187 3 0.734171 0.643944 0.702758
188 3 0.780458 0.326324 0.364966
189 3 0.458745 0.847968 0.314035
190 3 0.549124 0.149425 0.659386
191 3 0.806363 0.152704 0.841656
192 3 0.719849 0.837276 0.194121
193 3 0.0981792 0.580063 0.303035
194 3 0.894528 0.42394 0.710179
195 3 0.141018 0.412205 0.849256
196 3 0.353442 0.580081 0.210269
197 3 0.889676 0.078761 0.215823
198 3 0.110559 0.913054 0.803582
199 3 0.371655 0.91281 0.677645
200 3 0.133625 0.0579124 0.333455
201 3 0.604997 0.594986 0.296785
202 3 0.394719 0.41552 0.687495
203 3 0.642721 0.423561 0.790676
204 3 0.843544 0.580463 0.236785
205 3 0.373214 0.0548994 0.170627
206 3 0.622382 0.927922 0.812548
207 3 0.861101 0.921417 0.677507
208 3 0.639382 0.0737706 0.277117
209 3 0.0469475 0.401287 0.531617
210 3 0.995248 0.683736 0.509692
211 3 0.256733 0.688407 0.958211
212 3 0.276706 0.374655 0.956936
213 3 0.962752 0.87667 0.987644
214 3 0.000310241 0.176145 0.0146792
215 3 0.263961 0.153758 0.487901
216 3 0.250782 0.845094 0.455839
217 3 0.516947 0.32678 0.486975
218 3 0.472855 0.644129 0.461637