LAMMPS data file via write_data, version 15 Apr 2020, timestep = 80000

336 atoms
4 atom types

2.6394438009871735e-01 2.6100055940301225e+01 xlo xhi
3.7461759947908035e-01 1.1199382759121047e+01 ylo yhi
-2.1679313353309393e-01 1.0925792767332670e+01 zlo zhi
2.0325858220164306e-01 -1.3777292964639108e-02 1.4000986473724106e-01 xy xz yz

Masses

1 12.0107
2 1.00794
3 14.0067
4 15.9994

Atoms # full

1 1 1 -3.8201666897451012e-03 3.2944591571332675e+00 4.4188715028105587e+00 4.2895569093926111e+00 0 0 0
2 1 1 -8.6292387672019105e-03 2.4064324751317653e+01 7.4301591329890133e+00 6.0728117358591609e+00 0 0 0
3 1 1 -1.0994424259658155e-02 4.9123204989226350e+00 7.0283665699442652e+00 1.0313328005488778e+01 0 0 0
4 1 1 -1.2714171094749521e-02 9.6514109417778382e+00 4.3609017456635879e+00 7.9462333570352084e-01 0 0 0
5 1 1 -5.7940861984467178e-03 2.3315603141945733e+01 9.9519507935154810e+00 7.4499383273169950e-01 0 0 0
6 1 1 6.8661621585715676e-03 2.4727192304484316e+00 1.8490864199885577e+00 1.0295174240166961e+01 0 0 0
7 1 1 -1.1860867077923120e-02 9.0530607426032255e+00 1.6063852030235006e+00 6.1250345705076805e+00 0 0 0
8 1 1 2.8608650251634241e-03 3.9635150457341020e+00 9.8606999886717794e+00 4.1358280462105457e+00 0 0 0
9 1 1 8.4503428103926536e-03 1.6311260178586053e+01 4.2160445594444340e+00 4.3459073189179938e+00 0 0 0
10 1 1 -2.3501585802185206e-03 1.0973667915969450e+01 6.9286838282421135e+00 6.0913279584231352e+00 0 0 0
11 1 1 5.1625750460313445e-03 1.7502597356184360e+01 7.1042072203743620e+00 1.0445646821403798e+01 0 0 0
12 1 1 -1.0558784406734592e-03 2.2672755264506765e+01 4.6135118393806609e+00 7.1614807540028058e-01 0 0 0
13 1 1 -1.0977107379188902e-02 1.0585336766493116e+01 9.5846940179799116e+00 5.7303627290496051e-01 0 0 0
14 1 1 -6.8190922566468623e-04 1.5549013774919620e+01 1.6150930452011203e+00 1.0379699276492914e+01 0 0 0
15 1 1 1.0734237076457862e-03 2.1761030529103774e+01 2.0190357446940332e+00 5.7901460411887813e+00 0 0 0
16 1 1 -6.7353293674078316e-03 1.7176516379812263e+01 9.5852413219094128e+00 4.1901243668609744e+00 0 0 0
17 1 1 -1.2045338633376791e-02 9.9707200148624997e-01 3.3132486047212826e+00 4.3046055128609941e+00 0 0 0
18 1 1 1.4539476210873955e-02 2.5521553109650224e+01 8.5869137135007332e+00 7.8907740720954385e+00 0 0 0
19 1 1 2.6173486503853663e-02 6.2130464513031853e+00 8.6539105411929764e+00 8.9159312056440747e+00 0 0 0
20 1 1 -2.5604524759194371e-03 7.4804450380160450e+00 2.9693761143052018e+00 9.5913516424699963e-01 0 0 0
21 1 1 -2.1651475274583505e-03 2.5578346866780560e+01 8.6239170558379836e+00 9.5182037870075575e-01 0 0 0
22 1 1 1.1618344108267190e-02 9.9235055317000365e-01 3.3083202501301678e+00 8.6183922426953714e+00 0 0 0
23 1 1 8.2482746315653364e-03 7.3510732828031946e+00 2.8817030527412895e+00 7.6090595179052158e+00 0 0 0
24 1 1 2.2003797633993339e-02 6.2447101836564185e+00 8.5120205505247561e+00 4.1543028594327831e+00 0 0 0
25 1 1 7.1322590783786249e-03 1.3953001295913236e+01 3.1446662327752253e+00 4.4082903407765697e+00 0 0 0
26 1 1 1.8759773346426721e-03 1.2716327572813743e+01 8.2181172562994860e+00 7.4860462776391179e+00 0 0 0
27 1 1 1.5028433263254440e-02 1.8930354378170524e+01 8.5258963073920455e+00 8.8120346362039008e+00 0 0 0
28 1 1 -3.6287081103363664e-03 2.0534171079526462e+01 3.2149833632822555e+00 1.0218355803753547e+00 0 0 0
29 1 1 8.9262513614529748e-03 1.2865193365589603e+01 8.4964138639531459e+00 1.0270962818012617e+00 0 0 0
30 1 1 1.1518461478426943e-02 1.3853789241666085e+01 3.0335501189963425e+00 8.8637112238061633e+00 0 0 0
31 1 1 2.9530376957646660e-02 2.0289559135621584e+01 3.2946529135179929e+00 7.6007351953433453e+00 0 0 0
32 1 1 9.5486506769143029e-03 1.9523660776726917e+01 8.6959843468776725e+00 4.0605458355357369e+00 0 0 0
33 1 1 -2.3969822877055423e-03 1.9646681783196920e+00 4.3072468146998526e+00 2.0788282850824280e+00 0 0 0
34 1 1 -2.5962677780668152e-03 2.3624498193239326e+01 7.0288003754027031e+00 8.6422551634493310e+00 0 0 0
35 1 1 7.1440906825971911e-03 4.4688480364487901e+00 7.1635942234775092e+00 7.8175387591817929e+00 0 0 0
36 1 1 -1.5012134827285948e-02 8.5667359995404144e+00 3.8224981749784104e+00 3.0887076932237667e+00 0 0 0
37 1 1 -1.0839947521366203e-02 2.4405768001227809e+01 9.6005383817648760e+00 3.0101059162081292e+00 0 0 0
38 1 1 -4.4446723268310624e-03 2.3740476325326036e+00 1.3330243489143603e+00 7.7083929495389354e+00 0 0 0
39 1 1 3.9360556223582387e-03 9.1863782549781892e+00 1.5155546152811017e+00 8.7168741902838889e+00 0 0 0
40 1 1 -2.5636451818548955e-04 5.3021996659419584e+00 9.4521171877017771e+00 1.9663408035355028e+00 0 0 0
41 1 1 -6.6568375051943122e-03 1.4986118967385423e+01 3.9939080958231550e+00 2.2017663262629683e+00 0 0 0
42 1 1 1.3506716384566523e-02 1.0840125552511799e+01 6.9006627518710015e+00 8.6865150153069379e+00 0 0 0
43 1 1 4.4144005774510147e-03 1.7459117356942429e+01 6.7245646493919251e+00 7.8601942535694773e+00 0 0 0
44 1 1 -1.2374415917854466e-02 2.1513270852210258e+01 4.3838891302455201e+00 3.0214356386009240e+00 0 0 0
45 1 1 2.7754774389819603e-04 1.1649224141988171e+01 9.7154378474375616e+00 2.9251252371431633e+00 0 0 0
46 1 1 1.3043795743070862e-02 1.5606340884702218e+01 1.4738924085969385e+00 7.8222954333869952e+00 0 0 0
47 1 1 -6.1554835825338682e-03 2.2081362839491057e+01 1.6249299824550396e+00 8.3186357230582502e+00 0 0 0
48 1 1 -2.2579721285442451e-03 1.8252894951558925e+01 9.3983426598437418e+00 1.9128841828660037e+00 0 0 0
49 1 2 2.6538091580112183e-01 4.0220108585683612e+00 3.5359442704520236e+00 4.2695368243534402e+00 0 0 0
50 1 2 2.3542507366560053e-01 2.3313540601942798e+01 8.0839299067066470e+00 5.5167444154632550e+00 0 0 0
51 1 2 2.3089420783566272e-01 4.3095366794847392e+00 7.0363166899859717e+00 5.1390631690031385e-02 0 0 1
52 1 2 2.8897099546772653e-01 1.0426513222133755e+01 3.5343374547874222e+00 7.1946461734069289e-01 0 0 0
53 1 2 2.7140658868691098e-01 2.2446229293928326e+01 9.2208322217713246e+00 7.3774319028977686e-01 0 0 0
54 1 2 2.6732613088961316e-01 3.3563245573732652e+00 2.3135771646874979e+00 1.0780872189248196e+01 0 0 0
55 1 2 2.3488815409194388e-01 9.8937624088573486e+00 2.1327442420400677e+00 5.5410458923719412e+00 0 0 0
56 1 2 2.5760586915035688e-01 2.9957221737633315e+00 9.2409562364140285e+00 4.3230190266367190e+00 0 0 0
57 1 2 2.8804348751493170e-01 1.6979363943272695e+01 3.2931143022401761e+00 4.0731086213126613e+00 0 0 0
58 1 2 2.5023910016794626e-01 1.0112170379610728e+01 7.3929018994451035e+00 5.5303229688822997e+00 0 0 0
59 1 2 2.5548829354105396e-01 1.6607244489310670e+01 7.5765246670435822e+00 -2.0957332202035031e-01 0 0 1
60 1 2 2.8094792390883355e-01 2.3509888373094199e+01 3.8834780228224930e+00 7.3999341960985021e-01 0 0 0
61 1 2 2.8377266733606643e-01 9.9015136435365818e+00 8.7356938531427382e+00 6.6277119862921918e-01 0 0 0
62 1 2 2.6439575859256231e-01 1.6357948414267046e+01 2.3679511419425934e+00 1.0728158497876620e+01 0 0 0
63 1 2 2.3771361974899596e-01 2.2579269700517834e+01 2.6041825840661672e+00 5.2634649675422054e+00 0 0 0
64 1 2 2.6715758512986737e-01 1.6469707724526828e+01 8.7496284405512892e+00 4.2884849694383353e+00 0 0 0
65 1 2 2.4092728692733287e-01 3.8093669796783787e+00 5.3032379190721279e+00 4.8318424401371312e+00 0 0 0
66 1 2 2.5162225650061387e-01 2.4382712235258133e+01 6.6989078828341162e+00 5.3082200496941496e+00 0 0 0
67 1 2 2.6395434120987671e-01 5.5147411356423301e+00 6.1028927987842660e+00 1.0527460746769684e+01 0 0 -1
68 1 2 2.3086661494092212e-01 1.0050352330066714e+01 5.2308565490797836e+00 2.3657721449147034e-01 0 0 1
69 1 2 2.2701634814033600e-01 2.2840847371272861e+01 1.0739918847924233e+01 1.1806440447388783e-01 0 0 1
70 1 2 2.6608297405282005e-01 2.0018598880531391e+00 9.9987240896839602e-01 -3.2741319832235716e-04 0 0 0
71 1 2 2.4424315475918371e-01 8.6365747757369551e+00 7.9793879981474336e-01 5.4702037741611473e+00 0 0 0
72 1 2 2.2735154695643145e-01 3.6495440741234222e+00 1.0794566409517532e+01 4.6077501464545065e+00 0 0 0
73 1 2 2.5335385950070671e-01 1.6944278009208439e+01 4.9237083166059064e+00 4.9455150286222036e+00 0 0 0
74 1 2 2.6006070607862541e-01 1.1274884031939168e+01 6.1574935245187650e+00 5.3365551130353408e+00 0 0 0
75 1 2 2.5681570696281891e-01 1.7857646096350610e+01 6.2568180829583513e+00 9.7592094507748306e-02 0 0 0
76 1 2 2.2043604046522058e-01 2.2946596086359463e+01 5.5038983691227132e+00 -1.2713374332270322e-02 0 0 1
77 1 2 2.3294414610234934e-01 1.0133897377240636e+01 1.0359460255369102e+01 1.0905649778088325e+01 0 0 0
78 1 2 2.5726828435486415e-01 1.5613599604494715e+01 7.1874653773023023e-01 4.1525061694359600e-02 0 0 0
79 1 2 2.6500247428052165e-01 2.1399665814895165e+01 1.3232401112797310e+00 4.9542429473304326e+00 0 0 0
80 1 2 2.6626173273506282e-01 1.6762588508898759e+01 1.0498078808771471e+01 4.7955117469064028e+00 0 0 0
81 1 2 2.6652652473536709e-01 2.5818707526152938e+01 3.4879990241316023e+00 4.8456239432497412e+00 0 0 0
82 1 2 2.4879077937513350e-01 7.8726659150804212e-01 8.8431318089778319e+00 8.0001959812993775e+00 0 0 0
83 1 2 2.7194393290821967e-01 7.3135493044113726e+00 8.9901000169254690e+00 8.9727248511291720e+00 0 0 0
84 1 2 2.5659556370296993e-01 6.5391298690833723e+00 2.8252719402490820e+00 3.3078452521116419e-01 0 0 0
85 1 2 2.6258627635523701e-01 7.3471745818565415e-01 8.7522429260128849e+00 3.9367914346165489e-01 0 0 0
86 1 2 2.6897498444359308e-01 2.5720873586775216e+01 3.5375499662337009e+00 8.5644618663279672e+00 0 0 0
87 1 2 2.5995605252020604e-01 6.2407864908437176e+00 2.9223417615559582e+00 7.4973479238012013e+00 0 0 0
88 1 2 2.4737648417950281e-01 7.2577850909733757e+00 8.5391337552497770e+00 4.7561362475416402e+00 0 0 0
89 1 2 2.4363281716277729e-01 1.2913939308543817e+01 3.3156160037606996e+00 4.9207254960506202e+00 0 0 0
90 1 2 2.6210381887364659e-01 1.3782324313919732e+01 8.2145726948581732e+00 7.5474618984271817e+00 0 0 0
91 1 2 2.6257499725318661e-01 2.0042280545189136e+01 8.6635407295461153e+00 8.7901391854285293e+00 0 0 0
92 1 2 2.7114279468137525e-01 1.9500006255630442e+01 3.2518079895200200e+00 5.9505044465251777e-01 0 0 0
93 1 2 2.5237359792439418e-01 1.3885845573995434e+01 8.3103142807022934e+00 6.2886978372808200e-01 0 0 0
94 1 2 2.4876684469932614e-01 1.2782820232854867e+01 3.3628486120445582e+00 8.7824442029811038e+00 0 0 0
95 1 2 2.6741333731139938e-01 1.9323306569496744e+01 3.9163387356017472e+00 7.6594570083262310e+00 0 0 0
96 1 2 2.6364101026822334e-01 2.0545983608143100e+01 9.0266631068531940e+00 4.5820900080050908e+00 0 0 0
97 1 2 2.4138039689789859e-01 1.2148489724903011e+00 2.2288700657506064e+00 4.2642295491138578e+00 0 0 0
98 1 2 2.7155993127468514e-01 2.5079033050023952e+01 9.5847363332810325e+00 8.0881054832271211e+00 0 0 0
99 1 2 2.6282466255534004e-01 5.7670463959617653e+00 9.6698867112585045e+00 8.6256329496962252e+00 0 0 0
100 1 2 2.6748933355605570e-01 7.7874598099345524e+00 1.9150411595031045e+00 1.1548615534315583e+00 0 0 0
101 1 2 2.5421090127347556e-01 2.5425603533541814e+01 7.5031968868874790e+00 9.3235131901902402e-01 0 0 0
102 1 2 2.5610665021689077e-01 1.5459813038209802e+00 4.2861538467594347e+00 8.4282554042077713e+00 0 0 0
103 1 2 2.5726948656488324e-01 7.5595136199625683e+00 3.9695735792157634e+00 7.8687415422980509e+00 0 0 0
104 1 2 2.6221117590938653e-01 5.9360747650350030e+00 7.4008797639010240e+00 4.3411701619940724e+00 0 0 0
105 1 2 2.4401373440907206e-01 1.3993788548034480e+01 1.9792338072038433e+00 4.6206409609585988e+00 0 0 0
106 1 2 2.5719560354855525e-01 1.2370794970067111e+01 9.3030877134307239e+00 7.6115527776009539e+00 0 0 0
107 1 2 2.4994581953466885e-01 1.8499731912804588e+01 9.5617178211378651e+00 8.6685203543385931e+00 0 0 0
108 1 2 2.6948541834173334e-01 2.0914678884881301e+01 2.1491405885006980e+00 1.0199885578343502e+00 0 0 0
109 1 2 2.5462553373423646e-01 1.2529602457208426e+01 7.4162727933391261e+00 1.2773708651627143e+00 0 0 0
110 1 2 2.4960463525222498e-01 1.4342284052553078e+01 3.9761368082930879e+00 8.7911911721463483e+00 0 0 0
111 1 2 2.6252563519920202e-01 2.1005424136071468e+01 4.1134189112558577e+00 7.7906450029189278e+00 0 0 0
112 1 2 2.5721296424163181e-01 1.9633678279544899e+01 7.5933556889577183e+00 4.1052767317838263e+00 0 0 0
113 1 2 2.3335084115634505e-01 2.4454491326018610e+00 3.4646357750572347e+00 1.5993992297523352e+00 0 0 0
114 1 2 2.5017488725929377e-01 2.2770638726115724e+01 7.6585214235563521e+00 9.0500587319991510e+00 0 0 0
115 1 2 2.8451319513910611e-01 3.5731479457660731e+00 7.9046188284313441e+00 7.5547454641125720e+00 0 0 0
116 1 2 2.3833701641917066e-01 9.0346925262534761e+00 2.8096854235168403e+00 3.1202584274792504e+00 0 0 0
117 1 2 2.2231456207016950e-01 2.3924393072498326e+01 8.6674031133580272e+00 3.3062152273920602e+00 0 0 0
118 1 2 2.4647884400468190e-01 3.2603952771058320e+00 1.6622679044542523e+00 7.0915447565861669e+00 0 0 0
119 1 2 2.7504660207916204e-01 1.0050357732453000e+01 2.2264605274356510e+00 8.9099924550921550e+00 0 0 0
120 1 2 2.3225481372635812e-01 4.8707192981824639e+00 8.5397187074478342e+00 1.4199790018037295e+00 0 0 0
121 1 2 2.2525265135131872e-01 1.5414454123008445e+01 3.1503837828517920e+00 1.6298965791231752e+00 0 0 0
122 1 2 2.5713002301628013e-01 1.0264401413103069e+01 7.8604793600190872e+00 8.7951847245471662e+00 0 0 0
123 1 2 2.6390554701106728e-01 1.6625441709677649e+01 7.2819170434070060e+00 7.3336940011033622e+00 0 0 0
124 1 2 2.3375919249088925e-01 2.2139182245964236e+01 3.5473096568813052e+00 3.3053519042494388e+00 0 0 0
125 1 2 2.3941389410729058e-01 1.1049697032664136e+01 8.8340254977943058e+00 3.3869677122053417e+00 0 0 0
126 1 2 2.5988313386213086e-01 1.6357453896205190e+01 2.1220994160193078e+00 7.2235492118341975e+00 0 0 0
127 1 2 2.7187608385262219e-01 2.2993093334637273e+01 2.2246684061077158e+00 8.6657161482441545e+00 0 0 0
128 1 2 2.2758721944318533e-01 1.7946692069727185e+01 8.3730632909747715e+00 1.6359967135206879e+00 0 0 0
129 1 2 2.6464270655845717e-01 1.6359967540155158e+00 5.0124647816703876e+00 1.2289337036402515e+00 0 0 0
130 1 2 2.2915033218106490e-01 2.3437475280431446e+01 6.1175970832127069e+00 9.2043759031118846e+00 0 0 0
131 1 2 2.5033419561989650e-01 4.4277284353168476e+00 6.3374988434759105e+00 7.0600784226646756e+00 0 0 0
132 1 2 2.4808831371097237e-01 8.3082360140304292e+00 4.1717239309712770e+00 4.0704098909469781e+00 0 0 0
133 1 2 2.5331955108324261e-01 2.4622749949265184e+01 1.0133095862098822e+01 3.9423112634634929e+00 0 0 0
134 1 2 2.3901575885573731e-01 2.2554903897810834e+00 1.1123875736228223e+01 7.3527328536931380e+00 0 -1 0
135 1 2 2.3540365323615456e-01 9.2220134322162064e+00 7.0048908765867401e-01 9.4910863801968404e+00 0 0 0
136 1 2 2.6479614890779801e-01 5.7644395170998770e+00 1.0120996160809787e+01 1.2036208636224219e+00 0 0 0
137 1 2 2.5421451418481444e-01 1.4762632552802875e+01 4.6505838030829869e+00 1.3311892757101691e+00 0 0 0
138 1 2 2.2903258815043881e-01 1.0506974448366291e+01 6.3466021927964729e+00 9.6394925267553724e+00 0 0 0
139 1 2 2.5557085673111074e-01 1.7610099586065036e+01 5.7597997315178651e+00 7.3142551593435767e+00 0 0 0
140 1 2 2.4831455316457696e-01 2.1205615064165737e+01 5.0533384946517783e+00 3.9010036379425843e+00 0 0 0
141 1 2 2.4063405724620074e-01 1.1883203544609328e+01 1.0386088950543154e+01 3.8161846026061932e+00 0 0 0
142 1 2 2.5783106524107741e-01 1.5444357161626941e+01 5.5305013782213663e-01 7.1899400644606830e+00 0 0 0
143 1 2 2.6322130112321473e-01 2.2143571729607118e+01 6.4147034990908169e-01 8.7980119009509963e+00 0 0 0
144 1 2 2.4590110364449566e-01 1.8443748992552166e+01 9.9065143220928462e+00 8.6461189530405091e-01 0 0 0
145 1 3 -1.5880244714515304e-01 3.1263447577639654e+00 4.8414818359563778e+00 2.8482086080462090e+00 0 0 0
146 1 3 -1.2366800619845658e-01 2.3301626012094211e+01 6.7584184234468747e+00 7.1791631822766719e+00 0 0 0
147 1 3 -1.4211040921019988e-01 4.0307947438315326e+00 6.6439552026666213e+00 9.1473628648864178e+00 0 0 0
148 1 3 -1.2337954795225031e-01 9.5466046671914189e+00 4.6872563658719741e+00 2.2811053724874695e+00 0 0 0
149 1 3 -1.4817173814020429e-01 2.3412715812160403e+01 1.0380628123144845e+01 2.1928108224794407e+00 0 0 0
150 1 3 -1.3414301483823499e-01 2.9679861404341454e+00 1.1278472855459061e+00 9.0797982518861424e+00 0 0 0
151 1 3 -1.4073676389527617e-01 9.6687714536512921e+00 1.0070039260971204e+00 7.3687921244173484e+00 0 0 0
152 1 3 -1.2844086832537691e-01 4.1233111602849846e+00 1.0097391201376354e+01 2.6540011916710871e+00 0 0 0
153 1 3 -1.4594072928072119e-01 1.6083576663657830e+01 4.6960904379459274e+00 2.9182795084113438e+00 0 0 0
154 1 3 -1.2693069403615009e-01 1.0350664762124364e+01 6.3857145656495984e+00 7.3881439648767868e+00 0 0 0
155 1 3 -1.3099120962985236e-01 1.6914781031136698e+01 6.3985950982418638e+00 9.2436073169289443e+00 0 0 0
156 1 3 -1.4417809938787587e-01 2.2431035516239152e+01 5.1168308449502646e+00 2.1289267051348779e+00 0 0 0
157 1 3 -1.3970258792063353e-01 1.0619347814431544e+01 1.0242259558247607e+01 1.9177885841624538e+00 0 0 0
158 1 3 -1.4859815271708071e-01 1.6054440702525213e+01 9.1718814058282527e-01 9.1679440014369149e+00 0 0 0
159 1 3 -1.4076868627615033e-01 2.2477621178582364e+01 1.3204043035330548e+00 6.8759392253805212e+00 0 0 0
160 1 3 -1.3342218779100873e-01 1.7208298964431638e+01 1.0050921827554705e+01 2.7210315387244148e+00 0 0 0
161 1 3 -1.9249429092081305e-01 2.0962876781130517e+00 3.9461587035668670e+00 5.0836932401429520e+00 0 0 0
162 1 3 -1.6940845281934969e-01 2.5217626050569038e+01 8.3468816253583569e+00 6.4342630397151979e+00 0 0 0
163 1 3 -1.9639383814250866e-01 5.8831786699667266e+00 8.1614569787381299e+00 1.0281485076026502e+01 0 0 0
164 1 3 -1.6291378186784392e-01 8.4951033201108377e+00 3.7440011596768774e+00 9.0379543533226359e-02 0 0 0
165 1 3 -1.7211063006287688e-01 2.4494231004290629e+01 9.2976970593573913e+00 6.6064385311642215e-02 0 0 0
166 1 3 -1.6022375976961795e-01 1.3899270080270831e+00 2.8896677777901072e+00 1.0007259386026551e+01 0 0 0
167 1 3 -1.8495656074608063e-01 7.9155079034000648e+00 2.6003706791427343e+00 6.2229441040983930e+00 0 0 0
168 1 3 -1.7539026525167015e-01 5.0956550197490174e+00 9.1772228739875459e+00 4.8976563702055067e+00 0 0 0
169 1 3 -1.8764818262320523e-01 1.5135707808460930e+01 3.7652307661143221e+00 5.1360438425286556e+00 0 0 0
170 1 3 -1.6659431563181379e-01 1.2142361379514554e+01 7.8850734901574855e+00 6.1379000581662853e+00 0 0 0
171 1 3 -2.0289358329157373e-01 1.8588251613272472e+01 8.1048526599323267e+00 1.0220185811451863e+01 0 0 0
172 1 3 -1.8259340568243343e-01 2.1491709718233810e+01 3.8914102713181840e+00 8.9722014542856721e-02 0 0 0
173 1 3 -1.9720149252455879e-01 1.1861478072683353e+01 8.9524258196098536e+00 3.2167893968780781e-02 0 0 0
174 1 3 -1.7535114856207104e-01 1.4362987312283604e+01 2.5317612359854826e+00 1.0196424691462582e+01 0 0 0
175 1 3 -1.7905627516764758e-01 2.0631297360374095e+01 2.9334075832758204e+00 6.1776892796479821e+00 0 0 0
176 1 3 -1.8447866368766724e-01 1.8402550916813212e+01 9.1075553025324290e+00 4.9364278316264860e+00 0 0 0
177 1 3 -1.4300326811634140e-01 7.9691354227655975e-01 3.7682836004355229e+00 2.8225330842565253e+00 0 0 0
178 1 3 -1.7762647116901040e-01 2.4944134649309493e+01 7.6418451489080867e+00 8.9442627232035683e+00 0 0 0
179 1 3 -1.6963014863431228e-01 5.7829533675772442e+00 7.8468875420180337e+00 7.6725136926105426e+00 0 0 0
180 1 3 -1.6987014926579680e-01 7.2916239621577379e+00 3.3947076323869996e+00 2.3749636699257635e+00 0 0 0
181 1 3 -1.4899066964499735e-01 2.5634457229439178e+01 8.9348623931574469e+00 2.3868943016094901e+00 0 0 0
182 1 3 -1.9155577024325321e-01 1.2764289989757611e+00 2.3314461399981545e+00 7.4649836012050157e+00 0 0 0
183 1 3 -1.6768970737601804e-01 7.8272042287584336e+00 2.1306088426517569e+00 8.8206286925693540e+00 0 0 0
184 1 3 -1.5406210756324290e-01 6.4658776615317448e+00 8.9042531635998490e+00 2.7353580585090329e+00 0 0 0
185 1 3 -1.4327172224464432e-01 1.3764080170231685e+01 3.5031782366027153e+00 2.9646119366709782e+00 0 0 0
186 1 3 -1.9093956101489928e-01 1.2208262109744080e+01 7.5298628533836105e+00 8.7429281528640175e+00 0 0 0
187 1 3 -1.8617535439693636e-01 1.8606242359233491e+01 7.6442111931647823e+00 7.6230069026416603e+00 0 0 0
188 1 3 -1.5634395990214023e-01 2.0313905324635130e+01 3.7102740334935262e+00 2.4425464797676484e+00 0 0 0
189 1 3 -1.6164284908844370e-01 1.2895855246093973e+01 9.1154524485740041e+00 2.4106932223955488e+00 0 0 0
190 1 3 -1.9488245084357642e-01 1.4353390224876568e+01 2.2615343645716424e+00 7.6777229636864925e+00 0 0 0
191 1 3 -1.6986145959941015e-01 2.0762822400835063e+01 2.3199773490404407e+00 8.6180838954659365e+00 0 0 0
192 1 3 -1.5143455531223682e-01 1.9580481008656328e+01 9.1581364289204181e+00 2.6324815180383370e+00 0 0 0
193 1 3 3.5316511160691871e-01 3.1616848400332658e+00 6.3953439676429458e+00 2.7818817016002559e+00 0 0 0
194 1 3 3.3629142193318567e-01 2.3271224041459572e+01 5.2276428697158224e+00 6.9583719260215995e+00 0 0 0
195 1 3 3.3092708568294815e-01 3.9070913236726565e+00 5.1086352035380367e+00 9.0811671749601963e+00 0 0 0
196 1 3 3.8631240408154377e-01 9.4480257869017645e+00 6.1954627390672092e+00 2.5132163598363584e+00 0 0 0
197 1 3 3.7612467265460320e-01 2.3386000090623092e+01 1.1015976637921829e+00 2.2694934198144363e+00 0 0 0
198 1 3 3.4894424029491478e-01 3.4461347175629196e+00 1.0445851564925096e+01 9.3575264727215064e+00 0 0 0
199 1 3 3.4908024289411338e-01 9.7662863375410893e+00 1.0299606270963052e+01 7.3108675143434327e+00 0 0 0
200 1 3 3.5311149028161465e-01 3.9104628147119995e+00 7.6782295894677266e-01 2.3026040821861815e+00 0 0 0
201 1 3 3.7559886361400546e-01 1.6058841830971261e+01 6.2439163148908436e+00 2.7428412217130114e+00 0 0 0
202 1 3 3.5639729238322038e-01 1.0268259565047421e+01 4.8448022733881277e+00 7.3793482253321461e+00 0 0 0
203 1 3 3.5166929384987067e-01 1.6847997470548453e+01 4.8706743497503870e+00 9.4091084708491977e+00 0 0 0
204 1 3 3.8249895115497484e-01 2.2207434033932110e+01 6.6672689674654686e+00 2.2136046206800573e+00 0 0 0
205 1 3 3.7490045901418184e-01 1.0468903782307830e+01 9.5003467934697172e-01 1.8602206770329008e+00 0 0 0
206 1 3 3.5410186093857798e-01 1.6054956138318577e+01 1.0209754391990151e+01 9.2494741802282654e+00 0 0 0
207 1 3 3.5989284359807400e-01 2.2676252048286365e+01 1.0604504169861597e+01 6.7382583489732548e+00 0 0 0
208 1 3 3.7319266052254313e-01 1.7140403550140423e+01 7.7899326049638762e-01 2.6845808415125787e+00 0 0 0
209 1 3 3.3772344089462908e-01 1.5160683292235297e+00 5.1330571767836002e+00 5.8945689231231944e+00 0 0 0
210 1 3 3.5117775523711425e-01 6.6694115046942826e-01 7.9225380484234389e+00 5.6940188786031731e+00 1 0 0
211 1 3 3.2937880298907590e-01 7.2247982777332700e+00 7.7460811812253043e+00 -9.2788631058214527e-02 0 0 0
212 1 3 3.5185971428262364e-01 7.8360303512532816e+00 4.8700298017567256e+00 1.0265461429603338e+01 0 0 0
213 1 3 3.4956789244697700e-01 2.5055000456116606e+01 1.0440989270464364e+01 1.0211156530543967e+01 0 0 0
214 1 3 3.2858745002507528e-01 2.5989380202455784e+01 2.6899166533833148e+00 1.0879640797488609e+01 -1 0 -1
215 1 3 3.2310900581440172e-01 6.7616535890540490e+00 2.1837298500869418e+00 5.3251916917397750e+00 0 0 0
216 1 3 3.4459585401628462e-01 5.6615946329122364e+00 1.0208503025501628e+01 5.8855182947092723e+00 0 0 0
217 1 3 3.5914319677462148e-01 1.4657759265027854e+01 4.9187697158603170e+00 6.0489748422087768e+00 0 0 0
218 1 3 3.2586429397630423e-01 1.3240468912394249e+01 7.5651523317046419e+00 5.1212959224146166e+00 0 0 0
219 1 3 3.2712803614425640e-01 1.9862141673388461e+01 7.6823754628378067e+00 -8.4863159749496347e-02 0 0 0
220 1 3 3.3197017291753722e-01 2.0748771961521072e+01 4.9642129625336313e+00 1.0248461804993262e+01 0 0 0
221 1 3 3.4391631351248836e-01 1.2462074566954229e+01 1.0147745426379307e+01 1.0221560009966893e+01 0 0 0
222 1 3 3.3542792673999516e-01 1.3223493479128379e+01 1.9774055283819043e+00 -3.7984255187484606e-02 0 0 0
223 1 3 3.4668175669389395e-01 1.9330067842086343e+01 2.7984269682598253e+00 5.3308925197274846e+00 0 0 0
224 1 3 3.4022033086301734e-01 1.8778382722495817e+01 1.0184731263636197e+01 5.9838810155775706e+00 0 0 0
225 1 3 3.4087934869399711e-01 2.5531874500305182e+01 4.8402081475376066e+00 2.8064455974984983e+00 0 0 0
226 1 3 3.0814112082569806e-01 2.6010749200346151e+01 6.6109083345435211e+00 9.3401613663869192e+00 -1 0 0
227 1 3 3.2224706476444442e-01 6.8117452590698804e+00 6.8109003708453209e+00 7.1990538556234300e+00 0 0 0
228 1 3 3.4837300465621646e-01 6.1725840128902929e+00 4.4679563725322877e+00 2.3919529236197365e+00 0 0 0
229 1 3 3.4715112983965973e-01 9.7739745710525150e-01 9.9214695214154780e+00 2.5571503122760819e+00 0 0 0
230 1 3 3.2170298432071615e-01 2.5807172056742768e+01 1.5830736990798655e+00 7.1489307907981203e+00 0 0 0
231 1 3 3.0494368577573849e-01 6.7479653752957081e+00 1.1526904816364136e+00 9.3667562589584215e+00 0 0 0
232 1 3 3.5750036244751537e-01 7.7098201186194846e+00 9.8457964699060589e+00 2.6393562400220452e+00 0 0 0
233 1 3 3.4505720616645796e-01 1.2621859864002595e+01 4.5096350597469526e+00 2.7963224843918129e+00 0 0 0
234 1 3 3.2456633683853475e-01 1.3243645547635547e+01 6.6163540852875649e+00 9.4181403168541848e+00 0 0 0
235 1 3 3.3827885620875903e-01 1.9808603480477601e+01 6.7849331388723897e+00 7.1569840511110128e+00 0 0 0
236 1 3 3.3554075146301765e-01 1.9023770497231013e+01 4.5777416352421723e+00 2.4741930707762805e+00 0 0 0
237 1 3 3.6740969865739731e-01 1.4072108128212344e+01 1.0089283680224939e+01 2.5762737994736518e+00 0 0 0
238 1 3 3.1693127036361918e-01 1.3227428475005565e+01 1.3143012921245163e+00 7.1559435626868337e+00 0 0 0
239 1 3 3.4837687693180669e-01 1.9671865314367590e+01 1.3866731415246836e+00 9.2076547534226485e+00 0 0 0
240 1 3 3.4569018219345460e-01 2.0368604751743227e+01 1.0468975756224552e+01 2.5501855290318205e+00 0 0 0
241 1 4 -3.5347110337364535e-01 2.6524650627692554e+00 6.8996155667827974e+00 1.7179132096283205e+00 0 0 0
242 1 4 -3.7227046790826968e-01 2.3012670111528074e+01 4.3785883811901414e+00 7.9068181430599838e+00 0 0 0
243 1 4 -3.4320590537268758e-01 4.2477037669615880e+00 4.4886335825094088e+00 8.0009357286985683e+00 0 0 0
244 1 4 -3.4886694610951319e-01 9.0978296532231226e+00 6.5675599168064629e+00 3.6850902122626970e+00 0 0 0
245 1 4 -3.5063744036187988e-01 2.3731956638055031e+01 1.6426413608125809e+00 3.3663217812933244e+00 0 0 0
246 1 4 -4.0381137486157803e-01 3.5598089140254836e+00 9.6723848361778479e+00 8.3435770144320003e+00 0 0 0
247 1 4 -3.9160091860067431e-01 9.4075401073581428e+00 9.6499965964928442e+00 8.3496558336794280e+00 0 0 0
248 1 4 -3.7069801832122573e-01 4.2788794399384900e+00 1.1711898905985862e+00 1.1226009566959341e+00 0 0 0
249 1 4 -3.8643185975055871e-01 1.5487729709429827e+01 6.7417091293679379e+00 1.7129490321291878e+00 0 0 0
250 1 4 -3.7347110124906724e-01 1.0241092345383690e+01 4.1399127803889293e+00 8.4403599672062697e+00 0 0 0
251 1 4 -3.5976594641423348e-01 1.6814090637589636e+01 4.1355219762380528e+00 8.3400779074335176e+00 0 0 0
252 1 4 -4.0378591584521728e-01 2.1785885783826320e+01 7.1511913684121140e+00 3.3129910958497106e+00 0 0 0
253 1 4 -3.5995740139112054e-01 1.0890622430274144e+01 1.5844678662321781e+00 2.8980119804567792e+00 0 0 0
254 1 4 -3.5595506723097936e-01 1.5914365067218913e+01 9.5626679759454198e+00 8.1508127077484005e+00 0 0 0
255 1 4 -3.6733729886052463e-01 2.2920579702516488e+01 9.8406003878045460e+00 7.7423335967498801e+00 0 0 0
256 1 4 -3.5243443554702253e-01 1.7460414017849949e+01 1.3112759012475839e+00 1.5678252314930738e+00 0 0 0
257 1 4 -3.6590288467894150e-01 3.7965901161027560e+00 7.1173212946954676e+00 3.6514547925159553e+00 0 0 0
258 1 4 -3.2248265654624625e-01 2.3366343441438644e+01 4.7872381582605268e+00 5.7531496883119138e+00 0 0 0
259 1 4 -3.4159079067632669e-01 3.3483664587399407e+00 4.4793932098721507e+00 1.0052845400732441e+01 0 0 0
260 1 4 -3.7919638500370911e-01 9.9854071417451529e+00 6.9929030043540132e+00 1.6179023912579598e+00 0 0 0
261 1 4 -3.8620021196936205e-01 2.2966768775221063e+01 1.8622913822458831e+00 1.3202315738961419e+00 0 0 0
262 1 4 -3.0364510713691079e-01 3.6090462686772398e+00 1.0023535252053829e+01 1.0556337729828833e+01 0 0 0
263 1 4 -3.5671662050353725e-01 1.0247522346118132e+01 9.6652943383157606e+00 6.3099209164680614e+00 0 0 0
264 1 4 -3.7743346103389086e-01 3.4609940507188952e+00 1.6360734214193635e+00 3.1580141260383172e+00 0 0 0
265 1 4 -3.5247452191371198e-01 1.6899678423985286e+01 6.9021259971259781e+00 3.4321059754072065e+00 0 0 0
266 1 4 -3.4584318172401596e-01 1.0294642672165821e+01 4.2535166527743193e+00 6.2338196893916376e+00 0 0 0
267 1 4 -3.5123626078795189e-01 1.6555173474483059e+01 4.3625787720980842e+00 1.0547583082152386e+01 0 0 0
268 1 4 -3.8724221255395913e-01 2.2727674774849316e+01 7.4104005276802232e+00 1.2899654889912358e+00 0 0 0
269 1 4 -3.9639864716379314e-01 9.8871008574927508e+00 1.6298071363331144e+00 9.4762268496422242e-01 0 0 0
270 1 4 -3.7350051014686375e-01 1.6339087638731456e+01 9.6113609629754428e+00 1.0366150640758274e+01 0 0 0
271 1 4 -3.5228929979851081e-01 2.2614288105881737e+01 1.0083867342456793e+01 5.5658987189083327e+00 0 0 0
272 1 4 -3.7880668224607633e-01 1.6697594121504508e+01 1.4048603409860820e+00 3.7038754238726752e+00 0 0 0
273 1 4 -3.4404312424755684e-01 2.6111054289320766e+01 5.0638585466626962e+00 6.2177105708504143e+00 0 0 0
274 1 4 -3.4797584416882266e-01 1.8296250695658260e+00 8.2320571298942475e+00 6.1632974875680064e+00 0 0 0
275 1 4 -3.7380547450218332e-01 8.3034527675177294e+00 8.4716032665362508e+00 1.0733795327882635e+01 0 0 -1
276 1 4 -3.8099678020812666e-01 6.6390659081185417e+00 4.5792398170721569e+00 9.8827450712722005e+00 0 0 0
277 1 4 -3.8457970727573315e-01 4.3545260629274340e-01 1.0265812296145674e+01 9.8453771892999953e+00 0 0 0
278 1 4 -3.3193734586434109e-01 2.4910639093031886e+01 3.2530053013100289e+00 1.0457796230666563e+01 0 0 -1
279 1 4 -3.5143343601847699e-01 5.6432266352895528e+00 2.8375394208428091e+00 5.4035227611775456e+00 0 0 0